energy_per_atom,energy,density,formation_energy_per_atom,total_magnetization,band_gap,sgr,num_sites,cell_volume,weight,mp_id,formula,URL,tsne_cry_0,tsne_cry_1,tsne_xrd_0,tsne_xrd_1
-4.2360825775,-84.72165155,4.842835780163009,-1.8024417474827588,0.0,1.4555,60,20,596.8085784420259,1740.5468151999999,mp-755217,Cs2BaO2,https://materialsproject.org/materials/mp-755217,-4.268366552300919,-25.356956720415784,-26.204676725571307,-54.53805548842165
-6.554481779272728,-360.49649786,3.22096196344498,-2.0741801721818187,0.0029847,1.0522999999999998,1,55,1298.145436078954,2518.02395,mp-767467,Li7Y7Zr9S32,https://materialsproject.org/materials/mp-767467,14.051494000802164,10.32105142253492,-22.924324486026126,-79.28858168211033
-3.5631235250000004,-71.26247049999999,6.512595025250403,-0.7897693116666673,0.0,0.6732999999999998,62,20,620.3641518546908,2433.0536,mp-18501,Ba(AgTe)2,https://materialsproject.org/materials/mp-18501,16.925845535817196,3.2767746561468183,-1.7508395219690844,-16.48751095671511
-5.511900467,-110.23800934,3.3019706487139,-2.188629053948,0.0,3.9730000000000003,26,20,244.67708074458747,486.53872,mp-625184,Sr(HO)2,https://materialsproject.org/materials/mp-625184,-15.908491994691484,-27.207570987019263,-9.800280569100616,-15.400107971764813
-3.7222734868181817,-81.89001671,5.848388682668633,-0.3899214586363636,0.00010445,0.6621000000000001,2,22,640.6029251848811,2256.192,mp-638749,Te3(PdBr)4,https://materialsproject.org/materials/mp-638749,-1.054555260636736,2.026866866167932,-37.96041618433621,-42.00403355067924
-5.596064265,-89.53702824,3.1831175168217407,-2.2874806962349568,0.0,3.5252,5,16,301.56863486548525,578.0824064,mp-1223355,KRb2CO3F,https://materialsproject.org/materials/mp-1223355,-4.903987377055892,-33.443819933057625,-4.462111985043017,-31.99363631142252
-3.610072226,-18.05036113,3.3055078663975714,-1.3848384226939658,0.0008131999999999999,2.4464,119,5,111.49662975806817,221.9478,mp-1219554,RbLiZnS2,https://materialsproject.org/materials/mp-1219554,-8.146057937187733,8.711706977944521,16.751172059611438,-42.643117924231156
-3.4835446390476186,-292.61774968,6.331067228951199,-0.11177882487351166,0.0005375166666666667,0.8906000000000001,62,84,1999.8842467503,7624.8744000000015,mp-662599,Ag3AsSe3,https://materialsproject.org/materials/mp-662599,35.158706206607214,20.9432810652179,54.6366839807442,-1.97020931103179
-5.474552087857144,-76.64372923,5.2043612763982585,-2.0483669023214293,0.0,1.0877,227,14,360.9737024044215,1131.3419999999999,mp-16267,Dy2CdS4,https://materialsproject.org/materials/mp-16267,10.65985160606851,12.330999177313915,-21.050689385800126,-74.90407973868805
-6.875394146842106,-130.63248879,2.7134962964810727,-2.8616635315563914,0.0,5.6047,82,19,294.78169647143613,481.704448,mp-558990,K2Sr(PO3)4,https://materialsproject.org/materials/mp-558990,-29.461239438917776,-23.483335586499077,-60.65092219542559,-14.18934102113364
-10.186280859,-203.72561718,6.122144623410022,-2.4742663174375013,13.99995,0.7560000000000002,62,20,445.57920335631735,1642.78,mp-669509,Gd2S3,https://materialsproject.org/materials/mp-669509,13.640034480718715,-6.117830440166374,-1.7456112267043655,-13.155846797772007
-6.885281106111113,-123.93505991,7.75839695919244,-3.649821522827223,0.0,1.7392000000000003,9,18,273.48976110396603,1277.8032191999996,mp-1225708,Er3S2OF3,https://materialsproject.org/materials/mp-1225708,-12.314837832390609,-32.74367621690056,-10.330625063890443,-66.73716878859108
-3.279997564,-49.19996346,3.458022810336432,-1.5410449573333334,0.0,4.684799999999999,225,15,338.62816009891924,705.183,mp-29008,Li6MgBr8,https://materialsproject.org/materials/mp-29008,-0.8687324588924201,12.230319035362374,-27.238090767464875,-69.53930172225617
-6.174724219722222,-222.29007191,6.892707542750673,-3.0155706396501385,0.0,2.1122,62,36,766.7300828352314,3182.6088383999995,mp-27123,ErSeF,https://materialsproject.org/materials/mp-27123,15.733701514975946,5.133577022661013,5.046296904461966,-7.643573285196731
-7.119912836,-142.39825672,6.913852411840796,-3.0466848233749997,0.0,2.5653999999999995,14,20,389.2088779908812,1620.5176,mp-8324,Dy2S2O,https://materialsproject.org/materials/mp-8324,12.51216573172952,-3.3212688247158715,-6.907210827718714,-20.315173931070586
-3.523221718333333,-21.13933031,2.552730874893617,-1.0748498666666662,0.057481,0.0,164,6,200.4354427173694,308.1275,mp-569912,Ca3SiBr2,https://materialsproject.org/materials/mp-569912,14.222129075399602,1.7194397218096673,-27.25438322055037,2.672812818092173
-8.7379485884375,-279.61435483,5.3610986968429435,-3.8776502916145836,0.0,3.2856,62,32,502.6127019943518,1622.69976,mp-18051,La2TiO5,https://materialsproject.org/materials/mp-18051,-11.250563377073568,-59.20801554024664,-19.498437068402747,-58.069880819178096
-5.471923296428572,-76.60692615,5.304092065447477,-2.05356157232143,0.0,1.1167000000000002,227,14,357.2298708564364,1141.0632799999996,mp-6942,Ho2CdS4,https://materialsproject.org/materials/mp-6942,10.637870547649893,12.314748631454526,-21.03679372464337,-74.98478782810662
-4.710977737857143,-65.95368833,3.9373102884014335,-1.1365537180357153,3.0000146,0.6101999999999999,166,14,314.4206619691083,745.5239999999999,mp-1246487,Mg2In3MoS8,https://materialsproject.org/materials/mp-1246487,1.9669608827608425,25.967503860251337,-22.781276021955872,-79.53513529087827
-9.37847163925,-375.13886557,5.503743257206717,-2.441544247187501,20.99872675,0.3879000000000001,58,40,855.7677129568754,2836.383648,mp-1213337,Gd3ScS6,https://materialsproject.org/materials/mp-1213337,12.588581748663067,-4.565996754861331,-4.004254194104162,-16.705864827998806
-6.585110214166666,-316.08529028,3.786198687929185,-3.2518368471625,2.999999975,3.3829,14,48,670.5612039058167,1528.9480640000002,mp-766492,Sr2CrCO3F5,https://materialsproject.org/materials/mp-766492,-14.88038101106297,-25.364676537820753,-16.346198287972882,-16.907603614967748
-4.537237139375,-72.59579423,3.9088214766658296,-0.3392646768749996,2.5e-08,0.3385000000000007,205,16,346.32257513723704,815.2251087999999,mp-988945,AlAs,https://materialsproject.org/materials/mp-988945,13.069941584422224,22.804284214608327,17.18899809320499,-46.96437894497516
-6.912092283250001,-276.48369133,5.229871037477847,-2.0894738066875007,5.744223000000001,0.0,58,40,844.2402624150287,2658.9364000000005,mp-1214308,Ce3CrS6,https://materialsproject.org/materials/mp-1214308,12.62932053794723,-4.81150240901328,-3.6495001786640175,-15.787195516866324
-6.609877603958334,-317.27412499,3.7358856435166876,-3.2954791136208343,2.0000004000000002,2.4084000000000003,14,48,677.7169790815018,1524.729664,mp-759772,Sr2VCO3F5,https://materialsproject.org/materials/mp-759772,-14.877577737207826,-25.42115589228188,-16.349399937929785,-16.876245931012882
-7.476786678181818,-657.95722768,4.1956891839251,-3.146765738418233,0.0,3.844,13,88,1438.0108220847476,3633.42644,mp-1209773,Rb3La3(BO3)4,https://materialsproject.org/materials/mp-1209773,-22.533048851476078,-25.022111771923598,-21.226754951501587,-30.838423023110128
-6.31441921,-25.25767684,9.440576075083843,0.21432788750000054,3.53284335,0.0,194,4,92.84324977905558,527.83689,mp-568382,MnBi,https://materialsproject.org/materials/mp-568382,39.80406063885216,-7.5748898305935,31.76318722540669,-40.49707874616711
-2.663209713055556,-191.75109934,4.552707746240432,-0.8058570641422224,9.24125e-05,0.8852999999999999,205,72,2059.5834156998826,5646.769600000001,mp-1214272,Cd4As2Cl3,https://materialsproject.org/materials/mp-1214272,-1.4610399386489643,-1.080402016711539,-30.73394885914255,-35.32915307558435
-4.1883401569230765,-108.89684408,3.677419391474417,-0.8965417283943969,1.65e-06,1.2493,14,26,796.9232254486618,1764.8611999999996,mp-4818,Rb2Sb4S7,https://materialsproject.org/materials/mp-4818,-5.212870324303776,-5.807781808659557,-32.05621554315137,-39.645067983461104
-6.472194495454545,-142.38827890000002,6.357200362010172,-1.126050766288695,13.99999985,0.8202000000000003,63,22,539.5698661119429,2065.6869038,mp-1190996,CsGd2Cu3Se5,https://materialsproject.org/materials/mp-1190996,31.9366255351705,-3.573095432191029,3.0261117685645056,-21.308808108216322
-5.3524531615,-107.04906323,2.6565660492764547,-1.659458217937501,1.000000025,0.18660000000000032,12,20,523.5730377930429,837.6234,mp-1237973,YMgS3,https://materialsproject.org/materials/mp-1237973,-3.874642849126933,7.797696946080188,-37.900537688840096,-29.401306544317798
-2.9709318166666665,-53.476772700000005,3.545944991205917,-1.1926923978888888,1.15e-05,1.5731000000000002,128,18,633.4409405853107,1352.6612,mp-707190,K2SnBr6,https://materialsproject.org/materials/mp-707190,-1.4802685349839415,14.29978833105676,-23.698633005248013,-72.72148805567173
-3.3594045225,-67.18809045,5.297887117293307,-0.12300791608482127,0.0,1.209,15,20,587.3051936545468,1873.775048,mp-7293,HgPSe3,https://materialsproject.org/materials/mp-7293,-2.360542918405649,2.398182294340132,-35.05157575189527,-39.41620571133035
-6.80760719875,-163.38257277,4.7056018725524,-3.015129300344583,0.0,2.1589,11,24,527.5336010536486,1494.9140255999998,mp-696195,YSeF,https://materialsproject.org/materials/mp-696195,16.067782581163055,4.943272955027863,5.198507555332706,-7.662478045985953
-7.1406348326666675,-214.21904498,3.7755441790737274,-2.4750300511041683,1.6666666666666667e-08,1.4880000000000004,11,30,723.0727031511443,1644.0402,mp-541289,Y2S3,https://materialsproject.org/materials/mp-541289,16.606268245050305,4.671661553396027,-3.7947981234132206,-14.76774728905899
-7.744661438452381,-650.55156083,4.67928743248459,-3.3612989785317464,0.0,4.5408,33,84,1107.0698336056096,3119.6484,mp-6803,Sr3Pr2(BO3)4,https://materialsproject.org/materials/mp-6803,-17.73650404252044,-32.6326743826399,-18.346799829969076,-34.4295078065092
-5.5405961925,-66.48715431,4.859400266259716,-1.3340150832480238,5.0000007,0.5045999999999999,63,12,393.03146295342873,1150.1669938,mp-574651,CsSmMnSe3,https://materialsproject.org/materials/mp-574651,10.275610022089428,0.7281852727127197,-3.138618990226432,-19.849403296823148
-6.9373270185714295,-97.12257826,3.5659265821156487,-1.416818902321429,9.00000005,0.0,74,14,304.58614140347163,654.08388,mvc-16600,Y(MnS2)2,https://materialsproject.org/materials/mvc-16600,2.9482243808569706,27.39687719783215,-20.62810328440327,-80.20210841642749
-4.113815843928571,-115.18684363,3.392579514295758,-0.7418588105848214,1.9999999,0.0,2,28,788.710392218684,1611.3820000000005,mp-1194325,K2Sb4S7O,https://materialsproject.org/materials/mp-1194325,-4.7278619061494345,-5.13419435044154,-31.984293672024094,-33.24103166802381
-3.5382081279166666,-84.91699507,4.447527245912996,-0.6337316838802085,0.0,0.6149,14,24,565.0644391935632,1513.448,mp-570080,Li2TeSe3,https://materialsproject.org/materials/mp-570080,-7.988704792313842,2.8223635764429984,-29.649432065060026,-33.011239919349634
-7.7942736075,-779.42736075,3.273523572147924,-3.1747238798500006,2.000000125,0.2530999999999999,62,100,1295.1670940413017,2553.2432,mp-1197862,Ca2Y2Si4CO16,https://materialsproject.org/materials/mp-1197862,-25.213242400355,-36.43846910587241,-13.33275421633615,15.255874007044218
-6.370452534166668,-76.44543041,9.250529775499519,0.23650712583333325,2.848979575,0.0,198,12,264.83818783640675,1475.3604,mp-1102668,CrSbPt,https://materialsproject.org/materials/mp-1102668,21.114433451819135,7.976802539747852,38.83917534348401,-24.45932900585105
-6.058519789642857,-169.63855411,5.823570954734068,-2.510804726250001,7.5e-08,1.7477000000000005,62,28,702.0411760306359,2462.084,mp-984052,Ba(LuS2)2,https://materialsproject.org/materials/mp-984052,7.399603106941194,-4.190928055107426,-7.403299543797478,-12.999017167769226
-5.72110718,-22.88442872,2.685045115425372,-2.0711632669062503,0.0,1.6936000000000004,166,4,81.68087148334278,132.07568128,mp-999460,NaScS2,https://materialsproject.org/materials/mp-999460,21.78073008831964,23.914111679091512,28.340556755794193,-42.95021256618975
-4.1854128425925925,-226.0122935,4.432867705622201,-0.08302395359259222,0.0001312,0.0,223,54,1368.8623259617327,3654.2264,mp-27800,K4Ge23,https://materialsproject.org/materials/mp-27800,15.058248011153019,21.25496922609534,15.626156398661285,-46.62723581080024
-5.0262990471428575,-70.36818666,4.351687596567899,-0.9519218932738102,5.00000045,0.9216999999999996,227,14,315.0626204437469,825.6680899999999,mp-22168,Mn(InS2)2,https://materialsproject.org/materials/mp-22168,2.866073539422197,26.136482192491368,-22.212702544534014,-78.67273495738192
-4.3615088250000005,-52.3381059,5.552188842696273,-0.2964965365624999,4.88747155,0.0,14,12,260.9081346062418,872.37409,mp-1221523,MnZnSe4,https://materialsproject.org/materials/mp-1221523,26.14638323552409,25.431900405878178,24.483982704899173,-41.9493913796745
-4.7237151975,-75.57944316,4.098098708848951,-0.948278444383082,0.0,1.6771,70,16,521.2686410427344,1286.45596,mp-15222,Rb2NbCuSe4,https://materialsproject.org/materials/mp-15222,-8.036603027386578,-1.0882128764756689,-34.99628687645521,-47.11349243283847
-3.915537238928572,-109.63504269,4.003853860939859,-1.0987217711453199,3.99999995,0.9262,194,28,968.3397831599797,2334.8387999999995,mp-29459,Rb3Mo2Br9,https://materialsproject.org/materials/mp-29459,-1.5455038144533493,14.420324206843565,-24.147385957319838,-72.68810462494451
-5.4039131678571435,-75.65478435,5.793741312194573,-1.946040780178572,1.5e-07,1.7573999999999996,122,14,310.33518514623273,1082.7820000000004,mp-35281,Sm2CdS4,https://materialsproject.org/materials/mp-35281,16.009601679744087,-5.597731489760642,8.76899978458356,-8.104936865775112
-6.62933949,-79.55207388,5.279504086798151,-2.4084903886197915,0.0012445,0.0,8,12,254.50081442531098,809.157784,mp-1224056,Ho3Sc2S7,https://materialsproject.org/materials/mp-1224056,11.73788393575818,-1.7896948235209098,-6.166479758403924,-17.285746326302743
-3.7234713215,-74.46942643,3.4122070283374724,-1.69780358085,0.0,4.2591,14,20,620.2789707446664,1274.59831568,mp-29080,Na3YBr6,https://materialsproject.org/materials/mp-29080,11.290112474243035,4.041781404848116,-11.829291598365955,-7.826170732520818
-3.792215354,-151.68861416,2.038035523077249,-0.6656966388571426,0.0,1.6067999999999998,206,40,879.0601875154797,1078.900192,mp-2514,Mg3P2,https://materialsproject.org/materials/mp-2514,17.22351709464424,22.85639606349958,59.265511768684654,-13.317376352337632
-7.026257405,-140.5251481,3.5588936181607016,-2.3876220424375,1.5e-07,1.7757,62,20,429.3674110038974,920.2270480000001,mp-7792,YScS3,https://materialsproject.org/materials/mp-7792,17.614202619917982,6.024034139173043,-9.799485842891533,-12.502952865741127
-4.75950664875,-38.07605319,3.48160645330854,-1.9208995262500004,0.0,3.9934,12,8,313.46608324861444,657.2357,mp-754815,YBr3,https://materialsproject.org/materials/mp-754815,11.172653616569887,4.149413038223037,-11.469106165779946,-6.664181451521388
-7.790949551896553,-451.87507401,5.386682961893509,-3.4973178012212647,8e-07,2.6842000000000006,194,58,971.599703081276,3151.8076,mp-16662,Ba6Nd2Ti4O17,https://materialsproject.org/materials/mp-16662,-13.748259785753467,-80.81497355067495,14.919596342328553,-71.30630775655435
-4.79648512875,-76.74376206,7.22459983866784,-1.2027142309635417,0.0,1.2832999999999997,19,16,398.1351481442232,1732.1888,mp-4044,ErAgSe2,https://materialsproject.org/materials/mp-4044,27.55836537754516,-0.032007784801050425,13.536398174709852,5.30077296849208
-4.206243021764706,-286.02452548,5.761206190919113,-0.8329281093504912,0.0,1.0172,1,68,1621.9876117064505,5627.452799999999,mp-1224757,In4Bi3S10,https://materialsproject.org/materials/mp-1224757,7.506771773517102,-5.359375881132701,-19.767384325226494,-32.36178091148439
-5.435140560833332,-65.22168673,4.202168578844803,-2.1858085661566093,0.9999978,0.0,36,12,284.3916252876614,719.6829,mp-755057,Rb2PrO3,https://materialsproject.org/materials/mp-755057,-5.636761099751568,-30.840414731239623,-23.161919352495236,-52.80965143622368
-8.163727235972223,-587.78836099,3.9020951712710072,-3.3260845943994446,14.000000199999997,0.15859999999999985,14,72,1079.810375575582,2537.4428128000004,mp-561529,KEu2Si4O10F,https://materialsproject.org/materials/mp-561529,-24.118345347102604,-36.8634884097462,-20.502341560228388,-32.29982443818245
-5.7421582748,-574.21582748,4.812621456169505,-2.6666538491750007,0.0,1.481,1,100,2645.174520595918,7666.3200000000015,mp-1245311,BaO,https://materialsproject.org/materials/mp-1245311,-3.793610522476444,-24.79169046767509,-21.655699485252466,-32.23528473630384
-3.82701864625,-30.61614917,4.122189292114011,0.027861548750000242,2.63492725,0.0,194,8,384.0200144948778,953.3068199999999,mp-864733,MoI3,https://materialsproject.org/materials/mp-864733,-2.8958951898092162,5.602670356250597,-11.576067234413907,-21.644093361296708
-6.5398928745000005,-261.59571498,6.181817935421117,-2.124152831437501,3.00057705,0.2866,58,40,794.2209741049626,2956.70824,mp-1212338,Ho3CrS6,https://materialsproject.org/materials/mp-1212338,12.960439937822064,-3.711035261400696,-4.35398623369618,-17.38953475587748
-5.762214655357143,-322.6840207,5.382106346270424,-2.2483815848214297,0.0,1.4577,29,56,1202.2361286573962,3896.664,mp-1232109,Er2MgS4,https://materialsproject.org/materials/mp-1232109,12.235650091311081,5.493631850275492,-6.5176837868983375,-17.134489321135227
-4.806740634545455,-105.74829396,6.515766858389896,-0.47947852,0.0,0.4691999999999998,8,22,749.6309585734929,2941.4668600000005,mp-1218092,Ta2NbTeI7,https://materialsproject.org/materials/mp-1218092,19.058639780800462,1.8252553978239328,0.14875070789643766,-16.759051024346093
-5.32041277,-21.28165108,6.338569300759972,-1.2729411142968745,0.97351815,0.0,186,4,126.51238396977907,482.92,mp-7132,DySe,https://materialsproject.org/materials/mp-7132,14.404200865037689,12.239880064318012,-14.994650595112214,-10.425323776935477
-4.0518655950000015,-81.0373119,5.096347568207933,-0.5734217887500008,1.0,0.9198,136,20,756.6443166478865,2322.2112399999996,mp-28573,WI3O,https://materialsproject.org/materials/mp-28573,11.940288876006074,0.10916144470153406,-10.886791289553633,-7.990481299491157
-5.591364312105262,-106.23592193,7.04781947698156,-0.13001613157894773,0.0050021,0.053900000000000066,204,19,530.521642035845,2251.69097,mp-1210509,Pr12Co6Pb,https://materialsproject.org/materials/mp-1210509,34.06039327766208,-48.12240981452111,30.516758733255237,-29.140147073426828
-6.927189086,-138.54378172,5.803820132334341,-2.646406594269,8.1385546,0.0,166,20,300.51908169675283,1050.356935,mp-555245,Ba4NdMn3O12,https://materialsproject.org/materials/mp-555245,-11.840673061924038,-83.1944380770302,16.301614036204704,-73.07417218663531
-5.910571968666668,-177.31715906,2.81132540961356,-2.4786815777768205,0.0,2.1782,147,30,851.1851029108223,1441.0732,mp-753548,Rb6Ti2O7,https://materialsproject.org/materials/mp-753548,-3.0997962554275715,-9.601658476940074,-22.322842850472632,-11.611147409615796
-4.18034439575,-167.21377583,4.388470560966535,-0.0844599731999999,0.0,0.0,227,40,1023.290086678204,2704.3498000000004,mp-1196998,K3Ge17,https://materialsproject.org/materials/mp-1196998,15.13902958348656,21.213200623984932,15.496638315145345,-46.70191581605329
-6.270898150428572,-438.96287053,5.69065007327018,-1.789577771321429,3.90575589,0.0,1,70,1558.3326983114903,5340.3899999999985,mp-686377,Lu2FeS4,https://materialsproject.org/materials/mp-686377,1.9055915500917444,24.91758971709643,-23.22387382823891,-80.09278043586909
-8.170090919772727,-359.48400047,4.90706392358475,-3.6277516639772736,0.0,5.0399,19,44,618.1182824235817,1826.6032,mp-556771,Nd2Si2O7,https://materialsproject.org/materials/mp-556771,-25.08012868888349,-36.88031627473244,-31.007406989319644,-45.71781880426673
-6.389143860714285,-89.44801405,3.7924037498509904,-1.8687298051785717,3.0000005,0.06430000000000025,166,14,330.88477957186296,755.68755,mp-1246687,Y3Mg2WS8,https://materialsproject.org/materials/mp-1246687,12.624239188944891,8.251926131000257,-23.74019832112857,-78.71048297075309