energy_per_atom,energy,density,formation_energy_per_atom,total_magnetization,band_gap,sgr,num_sites,cell_volume,weight,mp_id,formula,URL,tsne_cry_0,tsne_cry_1,tsne_xrd_0,tsne_xrd_1
-6.295449584615384,-81.8408446,4.3860639639203445,-1.5917510401476922,8.9916042,0.0,2,13,137.30809948730706,362.67868,mp-1176681,LiMn2(CoO4)2,https://materialsproject.org/materials/mp-1176681,8.779048899124465,76.4842184424508,18.172141038664392,85.15122595597282
-7.864502954,-39.32251477,7.8659229143037495,0.02651298558333366,6.022984200000001,0.0,221,5,61.56738611983264,291.642835,mp-1094118,Mn3InC,https://materialsproject.org/materials/mp-1094118,51.30678274298658,61.35281193760943,81.29018447865253,14.292820898662304
-8.75614337875,-70.04914703,6.839358120027411,-0.2557736024399997,2.30176255,0.0,194,8,65.96867631454744,271.709,mp-1246373,CrFeN2,https://materialsproject.org/materials/mp-1246373,29.942536586060356,57.31535953486853,85.14307418819575,19.049848421546898
-6.002980045,-168.08344126,4.856931485968611,-1.6591479764971422,1.9999997999999999,0.0,186,28,255.47076911843132,747.22966,mp-757026,Li2MnCo3O8,https://materialsproject.org/materials/mp-757026,-0.6686701603594182,72.12823111170641,2.861268943882187,58.24148803247385
-6.023923259999999,-84.33492564,5.032799532909741,-1.8836397735714276,0.0,0.0,227,14,136.04819921545214,412.33797999999996,mp-756442,Mg(CoO2)2,https://materialsproject.org/materials/mp-756442,2.1616724339286315,68.57302477017015,11.53650522602845,53.9524375064254
-7.849381681666666,-141.28887027,7.004119691903285,-0.14615152050222158,0.0002455,0.0,2,18,162.49537341516378,685.40216,mp-1246063,V(CoN)4,https://materialsproject.org/materials/mp-1246063,29.76409354697925,57.00507019259176,76.14500337681508,9.03784877801979
-5.651801710499999,-113.03603421,4.36397818636333,-1.3543570287500004,1.00000005,0.6197000000000001,1,20,212.88565830870564,559.47397,mp-997539,Li(CoO2)3,https://materialsproject.org/materials/mp-997539,5.680711749962094,76.93895611311629,19.30986411470793,89.43143817967803
-5.9587701175,-23.83508047,9.279805003196355,-0.7397019712499997,3.66e-05,0.0,225,4,70.69004539883998,395.04632,mp-864744,HoMgRh2,https://materialsproject.org/materials/mp-864744,88.26563911560896,0.6523601345621232,65.69236847740841,48.21602459828666
-5.109874406333334,-153.29623219,4.936663137900427,-1.3482162603333343,1.0001059,0.0,8,30,258.29854091833994,767.902985,mp-760934,Li6Co3Ni5O16,https://materialsproject.org/materials/mp-760934,1.6639215040934727,73.49150044791999,2.91049705085599,58.3171467246581
-6.498876040833332,-155.97302498,3.6709464914408927,-2.4422667699116665,11.9999991,1.2898000000000005,12,24,208.78718767750885,461.56493499999993,mp-767011,Li7Mn3(SiO6)2,https://materialsproject.org/materials/mp-767011,5.529243297963977,83.4358172236808,16.25769146413851,92.46061975857955
-8.426337614000001,-42.13168807,7.7273378656294325,-0.3046652304760002,9.547914,0.0,221,5,61.29582406723414,285.240835,mp-10198,Mn3PdN,https://materialsproject.org/materials/mp-10198,51.27111853364383,61.38868356707473,81.82961797609737,14.035004836231296
-4.8019660084210525,-91.23735416,4.380863265559364,-1.224738381447369,4.0000002,0.3776999999999999,1,19,182.40535051759232,481.225,mp-762932,Li4(NiO2)5,https://materialsproject.org/materials/mp-762932,7.568198172321408,75.24836214838345,17.573688707392773,89.00963109728848
-6.1857070610000005,-61.85707061,4.29238147472483,-1.6494914272500003,5.0000004,0.0,12,10,105.53462457149048,272.79989,mp-756072,LiCr(CoO3)2,https://materialsproject.org/materials/mp-756072,8.645299821375955,76.72020616135949,21.225354905241872,85.39184855911743
-6.816034335,-27.26413734,3.8723333492104572,-1.08238520994,0.0,4.1935,166,4,34.47890532086515,80.40390000000002,mp-1017514,MgSiN2,https://materialsproject.org/materials/mp-1017514,29.43766043815236,57.48935729853116,83.83203105296948,21.203053060327075
-6.025660300416668,-144.61584721,5.003782772419399,-1.2758516621633322,5e-08,0.8197000000000001,186,24,238.75952868188,719.46566,mp-757029,MnCo3O8,https://materialsproject.org/materials/mp-757029,0.9972630962945186,72.3004508612047,2.4318343568364065,57.632415278073815
-6.599762785,-26.39905114,3.171903257573633,-1.362739001875,0.0,1.7551000000000003,187,4,42.91419060414958,81.9731772,mp-1228951,Al2CO,https://materialsproject.org/materials/mp-1228951,27.697678262327297,55.800256402184246,11.159263796997669,46.76248420637703
-5.324108375714286,-149.07503452,5.025567523960129,-1.3142057042857158,0.999992,0.0,8,28,249.3007316122348,754.500575,mp-772632,Li4Co5Ni3O16,https://materialsproject.org/materials/mp-772632,-0.4809275715869966,72.17006936566449,2.746455304457208,57.97119404599927
-7.609237903999999,-38.04618952,7.400808538582008,0.10771488104799973,3.1919485,0.0,139,5,45.26152614062653,201.72479,mp-1246772,Fe(CoN)2,https://materialsproject.org/materials/mp-1246772,30.30177403369031,57.382223591221006,85.58693504269019,17.571259179175442
-4.967335482857143,-139.08539352,5.6343768342811025,-1.1266076208928573,0.00455965,0.0,139,28,289.5017780513208,982.3088,mp-765613,Li(CuO)3,https://materialsproject.org/materials/mp-765613,26.79411708194796,56.145539165179684,55.885769331428115,31.427907928082675
-5.091570599285714,-71.28198839,4.395256655958667,-1.2203658035714289,6.0000002,0.0,12,14,141.2234886452404,373.8024,mp-753978,Li2FeNi3O8,https://materialsproject.org/materials/mp-753978,9.953518004707735,77.1776502580302,21.987019755026694,84.5795319762815
-5.97661444,-23.90645776,9.431229552577477,-0.7602089412499993,5.25e-05,0.0,225,4,69.96507691191407,397.375,mp-1184217,ErMgRh2,https://materialsproject.org/materials/mp-1184217,88.26100555873495,0.8080050626601692,65.52715333415625,48.39031649952754
-5.1332635021428565,-71.86568903,4.4913890552891935,-1.2620587064285718,3.9997589999999996,0.0,166,14,138.20078171912658,373.8024,mp-768413,Li2FeNi3O8,https://materialsproject.org/materials/mp-768413,1.861510228703134,68.84165899212711,17.762815245880805,84.41899850423864
-5.037167745357143,-141.04069687,4.779026178016544,-1.360237933214287,1.999998625,0.0,59,28,285.87855859449,822.7576,mvc-12895,Mg(NiO2)2,https://materialsproject.org/materials/mvc-12895,7.561350257573923,73.95278062006393,17.59659472416043,90.99883647286177
-6.431555595,-77.17866714,3.5967200588093933,-2.739435067708334,5.0,2.6366,12,12,104.6297090888643,226.6274772,mp-770727,Li3Al2FeO6,https://materialsproject.org/materials/mp-770727,5.596923028100351,83.54678896268055,13.35240084274621,95.45953160027037
-5.8317773886666675,-174.95332166,4.339316462579982,-1.2033909438333334,8.9944073,0.0,6,30,343.2450747087828,896.9671699999999,mp-778217,Fe2Co3O10,https://materialsproject.org/materials/mp-778217,5.042605709686856,72.30453580361225,17.332338360070544,85.89889048946641
-5.8320676945454535,-64.15274464,4.3531936434196385,-1.6626047375000004,4.999999400000001,0.11469999999999958,12,11,106.99819200183191,280.501595,mp-759337,Li2Fe2CoO6,https://materialsproject.org/materials/mp-759337,8.946899356451341,77.01357703915939,21.23934115120376,84.29100244471016
-4.731548623243245,-175.06729906,4.5468720146537045,-0.9377689992567568,2.0000003,0.6924999999999999,2,37,374.47294016139284,1025.3782,mp-758676,Li4(NiO2)11,https://materialsproject.org/materials/mp-758676,5.648205046743834,76.87546416468487,20.596155343462183,89.57001161088823
-4.157388096666667,-62.36082145,3.665857760785437,2.015446911897333,3.3100000000000005e-05,0.0,225,15,120.82788211276184,266.7434,mp-1104404,Ni(N4O3)2,https://materialsproject.org/materials/mp-1104404,7.567503005199964,62.153291391658136,17.984178940075047,89.7823502720288
-8.916244915,-71.32995932,6.471619841268599,-0.5552497686900004,2.9897414,0.0,194,8,69.17603383026207,269.5998,mp-1246237,VFeN2,https://materialsproject.org/materials/mp-1246237,29.923752528476623,58.21169993353533,85.10155499067916,19.143354123379922
-4.9867607275,-199.4704291,4.642421940628168,-1.4401814896250005,4.0000001,0.0,2,40,348.20349017672737,973.4836,mp-769545,Li10FeNi9O20,https://materialsproject.org/materials/mp-769545,11.355959370605182,80.42631019837384,23.42358131411882,85.16876125180005
-5.449387505000002,-163.48162515,5.007038910091998,-1.5255555730000008,1.5e-07,0.0,186,30,254.90663749982195,768.6223699999998,mp-759916,Li3Co3NiO8,https://materialsproject.org/materials/mp-759916,1.6096271746262911,73.44880965168784,2.955018688531977,58.21004913480421
-4.462775650625,-71.40441041,4.15425367400231,-0.427660056640625,1e-07,0.09580000000000012,2,16,187.65279713479103,469.4604,mp-1220184,Ni5O11,https://materialsproject.org/materials/mp-1220184,4.5074177924703696,76.5055266759807,19.2239164705742,89.95010385971305
-5.8127095010000005,-116.25419002,3.8182919831397695,-2.223152745875,1.00000005,0.6926999999999999,2,20,163.1699716452265,375.1978,mp-754230,Li3SiNiO5,https://materialsproject.org/materials/mp-754230,5.741034145036307,81.23200290545194,4.046507256406591,58.20080197961069
-5.320040475333333,-79.80060713,4.681474266311422,-1.0213100688333336,5.999998000000001,0.0,12,15,163.56684280872483,461.13578,mp-1215794,Zn(Co2O5)2,https://materialsproject.org/materials/mp-1215794,4.939979034516349,72.33653056452488,17.256063583917314,86.84973318664841
-5.799538346666668,-52.19584512,4.294410261466989,-1.1820593802777781,6.0000134,0.0,12,9,104.28913108412014,269.70779,mp-761530,Fe(CoO3)2,https://materialsproject.org/materials/mp-761530,4.973753359505066,72.4138021472408,17.47325157964803,85.98975975836558
-5.445699150416666,-130.69677961,5.117480583145644,-1.5429770585416671,9.9999643,0.0,1,24,207.26415066492905,638.750575,mp-766793,Li5Co5(NiO6)2,https://materialsproject.org/materials/mp-766793,10.91626313421848,79.37736963484537,28.36695726728713,77.7156141262043
-5.398941665,-86.38306664,4.056387876534289,-1.7077436775,10.0000001,0.0,166,16,138.9789793834428,339.49978500000003,mp-1173963,Li5Co3O8,https://materialsproject.org/materials/mp-1173963,7.243856749117992,85.73405899775743,-5.023773236252664,94.24196971578476
-5.938803635357143,-166.28650179,5.648988277591785,-1.7985201489285705,0.0,1.9857,62,28,242.41626281321805,824.6759599999999,mvc-12117,Mg(CoO2)2,https://materialsproject.org/materials/mvc-12117,7.92196155354088,61.07942347863889,4.504203374980311,49.698976763190686
-5.0225884735,-100.45176947,4.6628025992413535,-1.4477367023750003,5.9999995,0.0,12,20,173.9333528920333,488.405795,mp-1222736,Li5Co(Ni2O5)2,https://materialsproject.org/materials/mp-1222736,11.241916020440344,80.16992148253806,23.58790088848355,84.79513858637317
-6.44503447,-70.89537917,3.586903521266183,-2.5907186811363645,1.9999997,0.0,5,11,101.70275553491764,219.68647719999998,mp-768173,Li2Al2FeO6,https://materialsproject.org/materials/mp-768173,3.613142963065735,77.4404264269955,17.94836768833895,92.67804294722576
-5.591883936875,-89.47014299,4.677641771037677,-1.69268459375,2.500000075,0.3685000000000001,12,16,138.9776619197338,391.49197999999996,mp-1097885,LiCoO2,https://materialsproject.org/materials/mp-1097885,11.200457826283795,80.13334868086868,23.77972152279097,84.65757552645644
-7.32958782,-29.31835128,3.4216492926140725,-1.4793001361899998,0.0,3.2676000000000007,194,4,39.783487175645924,81.9764772,mp-13178,AlN,https://materialsproject.org/materials/mp-13178,7.35090852636926,61.59865334289805,42.5609925068777,25.14585808705037
-4.968177151428572,-69.55448012,5.666415966726808,-1.1274492894642856,3.1e-06,0.0,129,14,143.9324364213407,491.1544,mp-753848,Li(CuO)3,https://materialsproject.org/materials/mp-753848,26.758994697682525,56.1115871324874,55.898438333284396,31.506414909742823
-5.9453377525,-23.78135101,9.191938438305117,-0.7194240775000003,6.6e-06,0.0,225,4,70.92673652075203,392.616,mp-867831,DyMgRh2,https://materialsproject.org/materials/mp-867831,88.3454242372093,0.5815395842087224,65.76304628674544,48.1768339884411
-5.500849317916668,-132.02038363,4.338749659671601,-1.7403175452083337,7.9999999000000015,0.14869999999999986,2,24,204.85083839795186,535.245775,mp-1174305,Li7Co5O12,https://materialsproject.org/materials/mp-1174305,7.820030816174757,85.12183116682779,15.408233074458115,93.4184905481003
-3.3112597425,-13.24503897,15.429410034465358,0.07633160749999979,1.3000000000000001e-05,0.0,221,4,64.56352576148028,599.9118890000002,mp-983539,BeAu3,https://materialsproject.org/materials/mp-983539,62.10257107582346,57.90166759161196,80.06036158040689,15.15683287456074
-4.85305667375,-38.82445339,4.709203853999736,-1.3592917956250004,1.00000075,0.0,141,8,68.85399113161307,195.2664,mp-770635,LiNiO2,https://materialsproject.org/materials/mp-770635,13.47227926381993,77.9892084945785,8.723473515859348,75.48932232250533
-7.075064895833332,-84.90077875,4.163814601179325,-1.7646550653199995,0.0,1.6159,227,12,138.68247168934067,347.74737999999996,mp-25275,MnO2,https://materialsproject.org/materials/mp-25275,6.111282187349197,71.21779460139284,16.200867349924298,84.35196261528105
-6.5558034887500005,-157.33928373,4.784580744453049,-1.5256942543666672,11.9999995,0.8903000000000001,8,24,245.5384434873187,707.4802099999998,mp-756965,Mn5Co3O16,https://materialsproject.org/materials/mp-756965,0.6882363942847987,72.28936398862949,2.475097479604744,57.9339274327958
-3.3713536075,-13.48541443,2.2370748646890326,-0.0832830600000003,1.9e-06,0.0,221,4,65.23585705328063,87.88561580000002,mp-10890,LiAl3,https://materialsproject.org/materials/mp-10890,58.46362707147117,53.90724413174915,79.62524207409952,15.471032901337926
-5.841603956071429,-163.56491077,4.262370354884002,-1.9010907612292869,5.99999955,0.5819999999999999,1,28,243.53825290217392,625.12847,mp-1174584,Li4MnCo2O7,https://materialsproject.org/materials/mp-1174584,9.298064891424564,84.88206148169026,10.761166889184619,93.09453567777248
-5.167766171818182,-113.69085578,4.4087775260266175,-1.3377861465909098,4.00000045,0.0,64,22,213.26344409394426,566.2203999999998,mp-756434,Li2Fe(NiO3)2,https://materialsproject.org/materials/mp-756434,7.542787068255929,75.27293852383515,17.777836298757464,89.12379345666592
-7.8502448975,-31.40097959,9.984155165357112,-0.5026338687499994,9.53e-05,0.0,225,4,70.19641933690005,422.062912,mp-973433,LuScRu2,https://materialsproject.org/materials/mp-973433,88.4549321357827,0.7468943577237445,65.53288862487393,48.46577326391464
-6.602645581999999,-33.01322791,2.6685320829836234,-1.183956400951999,0.0,2.8075,160,5,34.25575621361297,55.049946,mp-1070456,Be3N2,https://materialsproject.org/materials/mp-1070456,7.294458830566268,59.495264055768736,47.61706964289801,27.68038274931804
-10.4370234275,-125.24428113,14.137705728581581,0.2865582891666669,2.01300455,0.0,193,12,196.2623508783036,1670.96304,mp-1102936,Ta2Fe,https://materialsproject.org/materials/mp-1102936,62.59386881405614,58.13426130046422,77.52009053332169,14.57758885153999
-4.2145457125,-16.85818285,8.683321965261877,0.0036611313749999037,2e-07,0.0,139,4,65.44950257447846,342.24976928,mp-976971,NaPd3,https://materialsproject.org/materials/mp-976971,58.554911636236184,53.95924720926485,79.37210059675355,15.783511637946939
-4.949471587,-98.98943174,5.300346950742296,-1.2375940725,1.000000075,0.0,62,20,208.0635764742614,664.1272,mp-18162,Li(CuO)2,https://materialsproject.org/materials/mp-18162,26.868670469861822,56.224308712935674,13.20339695787038,45.6354813703208
-8.361640439999999,-41.808202200000004,7.856786369831539,-0.18724419747599935,2.4104718,0.0,221,5,61.01806781765394,288.705,mp-10376,Cr3SnN,https://materialsproject.org/materials/mp-10376,51.21656846489189,61.529821605171755,81.44528278946132,12.502814145417487
-6.40029766,-12.80059532,6.981601897610848,1.1015673706250002,2e-07,0.0,225,2,16.816616023070786,70.7041,mp-1009582,NiC,https://materialsproject.org/materials/mp-1009582,29.738695990913282,58.563996720110886,57.49602078289561,42.25414180413507
-5.384951062000001,-80.77426593,4.4375207639026115,-1.5181702099999996,5.000000099999999,0.0,12,15,141.03551611573153,376.8945,mp-755220,Li3CrNi3O8,https://materialsproject.org/materials/mp-755220,11.953320672838972,80.70604477350483,22.7445901564902,84.43003361597462
-6.032653334615384,-78.42449335,4.379852770907767,-1.5014474646892308,5.0000007,1.0574,12,13,139.0175061832336,366.67383,mp-755862,LiMnCo3O8,https://materialsproject.org/materials/mp-755862,5.3126662768629735,76.96507432532107,20.6447271255176,89.66161670738121
-4.76667657375,-38.13341259,9.049567182257428,-0.4819863712500005,9.1e-06,0.0,194,8,126.08406209661116,687.13,mp-1185939,MgPd3,https://materialsproject.org/materials/mp-1185939,58.36428417258925,54.40664787211896,79.03933444379513,14.895324072715109
-6.47524159,-25.90096636,10.044765517507036,-0.8364289012499997,0.0005486000000000001,0.0,225,4,70.06115987190354,423.806912,mp-865994,YbScRh2,https://materialsproject.org/materials/mp-865994,88.46193144716341,0.7849929048026407,65.53120836138957,48.47692095855047
-5.46349639125,-174.83188452,4.17177119451064,-1.9098615899999996,4.9999998,0.6026000000000002,2,32,265.9306475585921,668.0974,mp-867679,Li9Si2Ni5O16,https://materialsproject.org/materials/mp-867679,5.727261180194351,81.28922074560155,15.997302749711153,93.15123592196808
-3.3618788925,-13.44751557,2.2294783942397585,-0.07380834500000022,4.23e-05,0.0,139,4,65.45813427364692,87.88561580000002,mp-975906,LiAl3,https://materialsproject.org/materials/mp-975906,58.47427055238191,53.86608890271695,79.33577654639262,15.780641461108885
-4.9211658525,-19.68466341,9.057860275826807,-0.7355571474999998,1e-07,0.0,225,4,71.26150790484333,388.71521,mp-867364,LiTmPd2,https://materialsproject.org/materials/mp-867364,87.82831360308519,0.4858011611722506,66.06292406459893,47.6140128963165
-4.7630988465,-285.78593079,4.993875018533065,-1.1067383588333333,1.0080683000000001,0.0,2,60,544.6172337972923,1637.872,mp-758491,Li5Ni9O16,https://materialsproject.org/materials/mp-758491,10.19387643061614,79.33636953960743,14.07306535023011,91.80407027569876
-7.8125346025,-31.25013841,9.729091384298007,-0.4768462112500007,5.65e-05,0.0,225,4,71.00706860580169,416.030122,mp-980206,TmScRu2,https://materialsproject.org/materials/mp-980206,88.50650791725899,0.5926161290818175,65.75799694274946,48.31301560288421
-5.519476457222222,-99.35057623,4.510903332833002,-1.4939582245000007,2.0,0.3054000000000001,8,18,192.7567058052964,523.62928284,mp-867705,Na3(CoO2)5,https://materialsproject.org/materials/mp-867705,7.102884069595923,74.1895342288621,18.27313968371937,91.32943677917886
-5.690013532,-56.90013532,4.636407128083817,-1.3925688502499995,1.9999919999999998,0.0,12,10,100.18839409307304,279.736985,mp-752635,Li(CoO2)3,https://materialsproject.org/materials/mp-752635,5.389055860225357,76.69498977568024,20.41310778107436,89.47676716841686
-4.7664610575,-19.06584423,9.048267593287637,-0.4817708550000006,0.0,0.0,139,4,63.051085679740716,343.565,mp-1185927,MgPd3,https://materialsproject.org/materials/mp-1185927,58.36488813760774,54.40424966139737,79.68821068895545,14.999646076339504
-4.737531183888889,-85.27556131,4.7198909492441485,-1.0675671693055564,1.0,0.12799999999999967,2,18,166.86129118586572,474.284,mp-762930,Li3(NiO2)5,https://materialsproject.org/materials/mp-762930,4.201515188067812,80.65765223487026,14.473599642241519,92.27151818716972
-6.865344915555557,-123.57620848,4.128292629024801,-1.6795131277666668,14.000002599999998,1.3451000000000002,12,18,211.42063603504917,525.61622,mp-755555,Mn5CoO12,https://materialsproject.org/materials/mp-755555,5.513931757587118,71.81643346701921,17.230278688827163,86.46488446147009
-6.536976193958334,-313.77485731,3.412033903066696,-3.0097496408333337,2.583333333333333e-07,4.5234999999999985,115,48,384.9842976623642,791.0560632,mp-34993,LiAlO2,https://materialsproject.org/materials/mp-34993,7.1360008112938,61.872602095998595,8.403499797110651,49.56991125964728
-5.084353974375,-244.04899077,4.6593304765045165,-1.4762999193950002,18.000002,0.0,12,48,416.2931063926632,1168.08284,mp-1120802,Li12MnCo(Ni5O12)2,https://materialsproject.org/materials/mp-1120802,11.409888904905547,80.36897471095759,23.69830569145537,84.65410121353062