energy_per_atom,energy,density,formation_energy_per_atom,total_magnetization,band_gap,sgr,num_sites,cell_volume,weight,mp_id,formula,URL,tsne_cry_0,tsne_cry_1,tsne_xrd_0,tsne_xrd_1
-5.1800722125,-20.72028885,18.45631200545696,0.5150505399999998,0.6749507,0.0,139,4,69.70436612316087,774.7397070000002,mp-1187758,WAu3,https://materialsproject.org/materials/mp-1187758,69.13405325955287,56.589162493530786,56.086859181499754,41.270355459028
-6.243762122142857,-87.41266971,4.269291456881035,-1.7397582844228572,7.00000035,0.6197999999999999,74,14,143.76341245174675,369.61967999999996,mp-1176646,LiMnCoO4,https://materialsproject.org/materials/mp-1176646,14.571932769532392,77.77374181370044,16.666488546528463,82.32488349090751
-5.820199422857143,-162.96558384,4.150900144684623,-1.8796862280150008,9.000000199999999,0.8475999999999999,2,28,250.0783428335969,625.12847,mp-1174441,Li4MnCo2O7,https://materialsproject.org/materials/mp-1174441,16.943440472336473,88.69591992159376,5.810450894570804,96.51847884370402
-5.558733608214285,-155.64454103,4.616026674317677,-1.4442731882142863,17.1718667,0.0,8,28,273.323214890446,759.7937900000002,mp-758365,Li4Fe3Co2Cu3O16,https://materialsproject.org/materials/mp-758365,-3.0896644135935145,72.31917488602949,2.4832176088560765,60.983288855547364
-7.631627314000001,-38.15813657,6.419296366109825,-0.0890388526707497,0.9965129,0.0,164,5,56.09447257337128,216.84949,mp-1247335,Mn2SeN2,https://materialsproject.org/materials/mp-1247335,23.24568243243586,51.717550011050776,47.49845050822074,26.939449450338298
-8.689447495,-69.51557996,13.160494722286373,-0.3684434499999991,0.0,0.5177000000000014,198,8,110.18473649724291,873.262,mp-2488,SiOs,https://materialsproject.org/materials/mp-2488,55.763800576586256,39.353860805514294,48.48369371840411,-0.2919099125682451
-10.232930333333334,-30.698790999999996,15.724014848239216,-0.07162373222222247,4.2999999999999995e-06,0.0,191,3,55.329228955313226,523.9248200000001,mp-1709,U2Ti,https://materialsproject.org/materials/mp-1709,57.70328401730561,19.482813444080783,49.137003255813596,-1.077429354841961
-6.1442314636363635,-67.58654609999999,2.9209325026904374,-0.13786926372818248,0.0,0.22750000000000006,6,11,128.4430372725675,225.9347316,mp-696353,Al6C3N2,https://materialsproject.org/materials/mp-696353,21.838454719861822,53.966177238752614,10.162435492808052,46.29570373241229
-10.27757158375,-82.22057267,20.720716053615238,-0.6658371312499991,3.155e-05,0.0,194,8,121.42654854640335,1515.19776,mp-1187241,TaIr3,https://materialsproject.org/materials/mp-1187241,67.57716432117846,63.60192157286345,89.61907645428059,16.654127951123375
-4.4700622625,-17.88024905,10.072596949972056,-0.3524226449999999,6e-07,0.0,164,4,89.15579818920929,540.8065690000001,mp-1218970,Sn2PdAu,https://materialsproject.org/materials/mp-1218970,48.16845264483304,20.1355927986061,74.4755689727077,16.278268650787552
-6.4043795,-128.08758999999998,5.482849835886266,-0.4425689947968749,41.731833200000004,0.0,2,20,390.987973072604,1290.9834050000002,mp-676780,LiMn9Se10,https://materialsproject.org/materials/mp-676780,23.113831389692532,23.39439570845035,29.006940197292643,-42.48351322262636
-10.6179380475,-42.47175219,11.423896897488408,-0.22891093874999946,3.2e-06,0.0,225,4,68.16486193215097,468.94914,mp-1186218,Nb3Os,https://materialsproject.org/materials/mp-1186218,95.89975677806714,8.042663211425142,63.01794917559319,65.21199166958888
-8.324901889,-83.24901889,5.953021528068838,-0.058214441951999166,1.2890944,0.0,36,10,109.80365209804529,393.64537,mp-1246667,Mn2CoN2,https://materialsproject.org/materials/mp-1246667,25.579277936368168,53.35648937713993,50.57201529685853,-4.763117690595808
-5.790161794375,-185.28517742,4.233972848397948,-1.8548128309974992,16.000000099999998,0.3145000000000002,1,32,283.5568865454502,723.001465,mp-1175921,Li9Mn2Co5O16,https://materialsproject.org/materials/mp-1175921,19.194296813534752,89.93799719514656,10.295714531782416,89.81745635089071
-6.099909466666666,-18.2997284,3.291251968887208,-0.37218567166666605,3.3e-06,0.0,191,3,51.02167411005635,101.126912,mp-2841,ScSi2,https://materialsproject.org/materials/mp-2841,26.1000248637904,49.14702100928139,51.394189346363405,32.706991332849576
-4.521911606875,-72.35058571,3.8030031005921887,-0.4700408892187502,3.9993754999999998,0.0,59,16,229.49111125518718,525.5856,mvc-12566,ZnNi2O5,https://materialsproject.org/materials/mvc-12566,-20.442149911546114,49.099439180816574,-24.468453410110985,57.347503449652365
-6.08178528,-24.32714112,6.0608762495078174,-0.5961581974999994,2.8e-06,0.0,225,4,71.20047574264404,259.87782400000003,mp-1186941,Sc2CuPd,https://materialsproject.org/materials/mp-1186941,94.0312177199839,-0.3662520891625719,70.39332291005587,54.75409517952237
-3.3717972825,-26.97437826,7.245114229820556,-0.28029667375000056,2e-06,0.0,194,8,131.76427381155648,574.9019999999999,mp-864889,ZrZn3,https://materialsproject.org/materials/mp-864889,58.6130521908547,48.65896539048172,82.12276927882291,20.17027889798594
-5.920802544583334,-142.09926107,2.869830903203088,-3.0054274689583336,1.6666666666666667e-08,3.1303999999999994,72,24,279.8507589101941,483.6528,mp-1192043,MgO,https://materialsproject.org/materials/mp-1192043,12.84284002236317,55.86615248980922,-7.083431010279359,63.70154705144656
-5.961567915625,-95.38508665,3.8256573966785683,-1.9900693319950005,8.0009223,0.0,10,16,143.8927705472854,331.5094850000001,mp-1174343,Li5Mn2CoO8,https://materialsproject.org/materials/mp-1174343,2.512974101682356,92.19579000170022,-2.756329885572278,94.93041381215677
-10.4108263025,-41.64330521,15.490173753129778,-0.7928051862499998,0.0006803,0.0,225,4,69.69206320497207,650.1155,mp-865131,Hf2OsRh,https://materialsproject.org/materials/mp-865131,96.74930801518816,4.965772492087197,65.43589391606722,64.3435816566159
-9.313408613333333,-27.94022584,12.347251447637735,0.1361919125800005,2.7000000000000004e-06,0.0,187,3,28.80975890650321,214.2204,mp-1008798,ReN2,https://materialsproject.org/materials/mp-1008798,49.55218872655848,18.127141159141093,47.777628803760464,-1.041851422199782
-3.66556464,-14.66225856,6.031866586622566,0.6225679149999999,0.0001878,0.0,225,4,77.25184076003018,280.615382,mp-631578,BeSbAs2,https://materialsproject.org/materials/mp-631578,87.95781910420456,-8.113951245900521,72.47047099003204,44.59405631576357
-5.7915586465625,-185.32987669,4.22578599138231,-1.856209683184999,17.9999995,0.4634,1,32,284.10623752789024,723.001465,mp-1175711,Li9Mn2Co5O16,https://materialsproject.org/materials/mp-1175711,17.568804574247274,88.69775973751179,8.003282316887116,91.27493971144457
-3.110254549285714,-43.54356369,2.3148863023530812,0.13164421285714312,3.39e-05,0.0,2,14,260.35733399626497,362.95300000000003,mp-1074480,Mg4Si3,https://materialsproject.org/materials/mp-1074480,45.25725148798804,23.471787941663933,57.87689897329607,7.115614920088571
-4.660515388333333,-27.96309233,7.946504892318938,-0.6470696349999999,5e-08,0.0,227,6,125.57106972668188,600.9200000000002,mp-1558,SrPd2,https://materialsproject.org/materials/mp-1558,83.51177252287734,10.367813650989415,59.80897527770721,24.702133224226863
-6.663284775,-26.6531391,9.86386435490346,-0.6242517362499997,9.000000000000001e-07,0.0,225,4,68.92846893559036,409.44599999999997,mp-977537,ZrCdRh2,https://materialsproject.org/materials/mp-977537,100.8506709038666,6.35870052694951,67.51668597290227,60.45494932998436
-6.624516377999999,-132.49032756,2.4222380235076075,0.30870491412500056,0.0,0.0,1,20,149.87216164482598,218.6194,mp-633538,B9C,https://materialsproject.org/materials/mp-633538,5.619330502052994,58.514367780424756,2.24933056972523,53.587090026297396
-5.409863199999998,-37.8690424,5.821961984668085,-0.5170822911904764,0.0007570000000000001,0.0,139,7,119.67308395153759,419.581912,mp-1025236,Sc(TiGa2)2,https://materialsproject.org/materials/mp-1025236,53.57211074021409,44.71307800858936,67.19615812782308,-3.1312443161424666
-5.475186914285715,-153.30523359999998,4.21132723038092,-1.6948454886607145,10.6293258,0.0,12,28,249.6406422558352,633.11877,mp-1174331,Li4Co3O7,https://materialsproject.org/materials/mp-1174331,5.104126988482412,95.96108894634978,1.7221453393050985,89.7396526291158
-6.00470798,-72.05649576,9.41703625400836,-1.036615815,3.5799999999999996e-05,0.0,194,12,213.39825447196904,1210.19684,mp-1207672,TmNiAs,https://materialsproject.org/materials/mp-1207672,54.04327480637742,-17.026746975935463,25.319102059936363,24.661151316497513
-3.2675678385,-65.35135677,8.07255738377347,0.004656015333333841,5e-08,0.0,4,20,344.3965277553628,1674.2519544000002,mp-1228502,Al2SiAg7,https://materialsproject.org/materials/mp-1228502,47.086092181443206,34.29342236898418,50.46541117177894,32.64318634814309
-7.1144739094382015,-633.18817794,3.28301861050888,-3.27010893813764,5.2e-06,2.821,8,89,968.0783708639026,1913.9684352000002,mp-863387,K6Al32O51,https://materialsproject.org/materials/mp-863387,3.0035530579167204,61.68449029349933,7.952913887442441,52.884954591496104
-5.99053991375,-95.84863862,3.9005165242806448,-2.0190413301200003,8.0000003,0.37239999999999984,2,16,141.13116520492574,331.5094850000001,mp-1174361,Li5Mn2CoO8,https://materialsproject.org/materials/mp-1174361,1.9651239691660205,92.37564438781708,-4.356341187941086,83.99958457611083
-3.174817375,-12.699269500000002,9.016290438357426,0.10237435625000037,2.5e-06,0.0,225,4,72.9767560381577,396.2446,mp-985283,Ag3Ge,https://materialsproject.org/materials/mp-985283,97.6356618321686,1.8544894568812968,73.73569283058994,55.62699733406541
-4.85642077,-53.42062847,4.109560574673884,-1.3085346068181816,0.9746841999999999,0.0,44,11,136.9806729480452,339.0046,mp-753081,Li3(CuO)4,https://materialsproject.org/materials/mp-753081,-13.894305490919896,48.909245105813,-2.8223821384355383,56.01793694272879
-5.932410131999999,-59.32410132,10.11971626121577,-0.267281328,0.0,0.0,63,10,185.065537289612,1127.833,mp-1341,Te2Rh3,https://materialsproject.org/materials/mp-1341,35.47741518937836,26.797175039160514,68.29525708055388,-1.223364147993364
-8.47052583375,-67.76420667,10.878020144841496,-0.06726604874999964,5e-08,0.0,223,8,145.22765724774976,951.371418,mp-2752,Nb3Au,https://materialsproject.org/materials/mp-2752,64.34730041124892,22.94164700876244,69.84618055996263,25.445739472417607
-6.63775029,-19.91325087,4.066141644040097,-0.3884963955555551,1.6e-06,0.0,71,3,42.4872460841938,104.038,mp-570991,TiSi2,https://materialsproject.org/materials/mp-570991,55.84414571727933,52.65099561756261,79.75772459812053,4.008143280040055
-4.4348438130000005,-44.34843813,2.78667682447639,-0.5635183709279993,6.0000008000000005,0.5725,225,10,119.75289054186527,200.9664312,mp-1078490,Sc(NF2)3,https://materialsproject.org/materials/mp-1078490,-25.349481826805906,62.29518888148803,-41.6680713556319,65.53286084936342
-2.840927655,-22.72742124,6.031668225041538,-0.30317327250000004,5.3e-06,0.0,194,8,132.79697298142634,482.36582400000015,mp-862260,ScZn3,https://materialsproject.org/materials/mp-862260,58.383893749545926,48.95532363700555,81.82744507189608,20.12235137066301
-2.59734565,-10.3893826,8.582257016571692,-0.34819004374999984,8e-07,0.0,139,4,58.55769151034279,302.64700000000005,mp-865357,Zn3Pd,https://materialsproject.org/materials/mp-865357,58.7440687722979,56.88195957886993,85.81720482655743,10.78798076081294
-6.984217328,-34.92108664,11.59249133806464,-0.4251922877499993,4.55e-05,0.07040000000000024,221,5,70.72851627494708,493.7672,mp-10716,YbRh3C,https://materialsproject.org/materials/mp-10716,50.85958442998982,30.311820599084676,54.95832386716781,38.37945882028257
-5.360340412142857,-75.04476577,3.701742197215616,-1.303362362312857,2.1807355,0.0,12,14,155.67946127350925,347.04708359999995,mp-1214974,AlCuO4F,https://materialsproject.org/materials/mp-1214974,-18.9858264514068,46.44777760519677,-7.131234320792762,65.88469387793569
-6.228219906527778,-448.43183327,3.623842159145891,-2.2184947252750002,29.0029355,1.0885,1,72,632.9134864250723,1381.225325,mp-769037,Li24Mn5Cr7O36,https://materialsproject.org/materials/mp-769037,-10.910588144851545,98.92374336256,-12.62031737863716,96.53280651194349
-5.24505718,-10.49011436,15.332768202423464,-0.16699659499999964,3.9899999999999994e-05,0.0,166,2,28.009633110302914,258.63,mp-644311,CuPt,https://materialsproject.org/materials/mp-644311,59.864963910539636,63.81735141988671,85.74711252627253,3.7869363547396584
-5.806147570892858,-325.14426397,2.418200499094426,-2.0709248940514287,1.25e-06,4.0103,7,56,428.5102227469845,624.0284687999998,mp-626467,Al(HO)3,https://materialsproject.org/materials/mp-626467,-9.851001775799169,77.66115908036109,-27.66239938511409,75.86143069900085
-5.3858274925,-43.08661994,3.33465112926033,-1.8412762943750005,2.9999998,0.0,38,8,70.04652400829568,140.6656,mp-764163,Li3FeO4,https://materialsproject.org/materials/mp-764163,1.798136150946861,91.64411326590029,-5.973070002606863,92.72990035799118
-6.3723882675735295,-866.64480439,8.564269833777336,-0.4673244107107843,5.5e-07,0.003300000000000303,61,136,1498.376373321788,7727.911999999998,mp-1204635,Dy2(Ni2B)5,https://materialsproject.org/materials/mp-1204635,56.07084062784008,30.415565132383925,61.84910909512046,8.488333356339151
-7.272225488333333,-43.63335293,7.890576717741727,0.2097227583333338,6.11905205,0.0,194,6,97.4937027487738,463.27218000000005,mp-6912,Mn2Sb,https://materialsproject.org/materials/mp-6912,50.11571508574885,39.07582887269607,65.44208585445382,9.294463428433016
-7.52877481625,-60.23019853,3.26797618289438,-1.3121842057733335,0.0,3.3595000000000006,215,8,75.09187862075187,147.78241580000005,mp-1019380,Al3BN4,https://materialsproject.org/materials/mp-1019380,6.073021971204085,56.42752490443668,45.20273973579898,37.65955181498776
-5.846447532916668,-140.31474079,4.088311608967192,-1.8990486961216664,13.9999999,0.0,1,24,214.15400390980068,527.2554749999998,mp-1174992,Li7Mn2(CoO4)3,https://materialsproject.org/materials/mp-1174992,15.594595093629133,89.3227230303863,7.778983820387963,92.79082070994086
-6.223320296129033,-385.84585836,4.272496525295263,-1.8312693564784948,15.00006465,0.0,55,62,640.5232394246387,1648.0391300000001,mp-774947,Li4Ti2Co7O18,https://materialsproject.org/materials/mp-774947,-7.641076864699372,66.27049353967088,-8.818922337446795,71.5131171130991
-3.8299635425,-30.63970834,16.61580944443781,-0.08021183249999986,8.5e-06,0.0,194,8,139.37648968675194,1394.639414,mp-1186447,PdAu3,https://materialsproject.org/materials/mp-1186447,51.942076811042064,32.033469645155265,55.94973977764671,37.902680869198754
-4.371286398333333,-26.22771839,9.197072343429637,-0.18763552333333305,4e-07,0.0,216,6,86.70592482061849,480.23,mp-30578,DyCu5,https://materialsproject.org/materials/mp-30578,67.38835865485503,49.10167038867631,73.76946265449826,23.43852357894476
-1.63261591,-6.53046364,0.5205135215744747,0.2753567400000001,3.55e-06,0.0,213,4,88.57254229843015,27.764,mp-604313,Li,https://materialsproject.org/materials/mp-604313,36.23709688314136,45.71273173589883,55.60120003065056,-23.59680045446622
-8.296451862,-41.48225931,5.948590009894446,-0.12554615533333474,0.0073153,0.0,69,5,81.66149774577245,292.538,mp-1217110,Ti4Ru,https://materialsproject.org/materials/mp-1217110,55.873196604603045,47.28221255239847,62.63184536882469,61.229710713785344
-6.7494533226666675,-101.24179984,4.131810368708405,-2.285263333333334,5.000000099999999,0.8081999999999998,148,15,144.9123500596686,360.575895,mp-773242,Li3V3CoO8,https://materialsproject.org/materials/mp-773242,16.78706388924218,80.99214879740093,21.195294794284557,81.67020277998209
-10.6226815525,-42.49072621,15.307810097463019,-0.6978688668749982,0.0012482,0.0,225,4,70.08591123553371,646.0925,mp-977407,Hf2ReRh,https://materialsproject.org/materials/mp-977407,96.77705659949196,4.831911369146601,65.60282476193252,64.3605144615988
-5.878546265,-141.08511036,4.0728095383119145,-1.9311474282050003,18.0000013,0.5545,12,24,214.96912439812493,527.2554749999998,mp-1174467,Li7Mn2(CoO4)3,https://materialsproject.org/materials/mp-1174467,17.00172506050636,81.45771933371053,1.299284412370986,94.5590920406583
-7.1701292279999995,-71.70129228,5.068355707181653,-2.9350736189166677,4.5574297999999995,0.0,225,10,122.84387524405872,374.9484,mp-1094048,Sr2TiFeO6,https://materialsproject.org/materials/mp-1094048,17.357600931805774,-94.55901637833456,61.02893461474522,-64.56541565417416
-6.30603612,-201.79315584,2.657945404420901,-0.14441880673958266,1.115e-05,1.6090999999999998,74,32,251.55410108778872,402.65061576,mp-34763,NaAlB14,https://materialsproject.org/materials/mp-34763,5.2895014865139,59.92975691803982,5.640001109109244,50.167248390136386
-3.03066865,-12.1226746,5.6909765515142094,0.0,9.25e-07,0.0,64,4,81.37637710358499,278.892,mp-142,Ga,https://materialsproject.org/materials/mp-142,23.825736185181533,22.74830243018276,78.8093208102123,9.355042872195687
-10.295849555,-41.18339822,20.76033384421093,-0.6841151024999998,0.0,0.0,221,4,60.597412659193715,757.59888,mp-265,TaIr3,https://materialsproject.org/materials/mp-265,67.58175488939273,63.59935685546596,89.47376533401192,16.90496233430918
-5.084476386590909,-223.71696101,12.211308979203505,-0.2553972588636365,2.775e-06,0.0,146,44,804.0994981486293,5913.2048,mp-1198800,Bi3Pd8,https://materialsproject.org/materials/mp-1198800,63.32532989951842,21.962044662678657,55.0771842945526,13.18298421139375
-5.7902847334375,-185.28911147,4.199483122617035,-1.8549357700599989,20.0000001,0.4725000000000002,1,32,285.8856967763025,723.001465,mp-1175905,Li9Mn2Co5O16,https://materialsproject.org/materials/mp-1175905,15.353496038528274,89.82678701538275,6.6478786630982345,92.0383310577072
-5.898789203,-117.97578406,4.009245463765701,-1.941750467471,7.00000015,0.5091999999999999,12,20,177.84053821995843,429.38248,mp-1174029,Li3MnCoO5,https://materialsproject.org/materials/mp-1174029,3.4040147599681916,93.57352609765724,-0.8366805862105555,91.54417461117895
-5.79959894125,-185.58716612,4.200997886635238,-1.8642499778724997,22.0000002,0.7692999999999999,1,32,285.7826142757915,723.001465,mp-1175812,Li9Mn2Co5O16,https://materialsproject.org/materials/mp-1175812,13.602470761395175,90.58001567514371,6.197626256374849,93.4346492313896
-6.7107431725,-80.52891807,3.0414306160014517,-2.643765318333333,1.000000425,0.07410000000000005,62,12,128.8066929062204,235.9213544,mp-1182869,AlO2,https://materialsproject.org/materials/mp-1182869,4.239890104065413,62.766493213729255,-15.757381226140337,57.8447807116581
-4.822276655,-19.28910662,5.0232109131098515,-0.3129783537499993,9.77e-05,0.0,225,4,72.35151222981527,218.866824,mp-978523,Sc2ZnCu,https://materialsproject.org/materials/mp-978523,97.4753587432856,0.5519079908642525,73.42137530780789,54.883551117983636
-5.815541731964286,-325.67033699,2.4306730676984527,-2.0803190551228568,1.1e-06,4.3037,1,56,426.3113983876892,624.0284687999998,mp-625807,Al(HO)3,https://materialsproject.org/materials/mp-625807,-9.853803292855886,77.6866792622373,-27.66812300636049,75.65063179376429
-4.730430378333334,-28.38258227,10.07186334192344,-0.3733100074999995,3.929999999999999e-05,0.0,216,6,87.02829749714675,527.8629999999998,mp-1077518,ErCu4Pd,https://materialsproject.org/materials/mp-1077518,70.63874479992012,47.66125588787895,73.59387969584705,23.943571872124068
-5.4093170992857145,-75.73043939,4.781630938163957,-1.3414952185714282,3.1433159,0.0,160,14,131.05108546188592,377.370185,mp-752876,Li2Co3NiO8,https://materialsproject.org/materials/mp-752876,-0.4777594996821594,70.59390954104926,4.4323708611113615,57.691716072495815
-5.7916667459375,-185.33333587,4.2133884630227545,-1.85631778256,17.9999998,0.4062999999999999,1,32,284.9421953722215,723.001465,mp-1175712,Li9Mn2Co5O16,https://materialsproject.org/materials/mp-1175712,17.931466651894105,88.68262685015009,8.047024013260437,91.04584221244413