energy_per_atom,energy,density,formation_energy_per_atom,total_magnetization,band_gap,sgr,num_sites,cell_volume,weight,mp_id,formula,URL,tsne_cry_0,tsne_cry_1,tsne_xrd_0,tsne_xrd_1
-4.06810942,-28.47676594,7.565528759993402,-2.0637729406800003,1.9999999,3.5522000000000005,139,7,119.28127816465143,543.4536128,mp-1206532,Tl2NiF4,https://materialsproject.org/materials/mp-1206532,-3.2160268082078827,-62.24358334175154,3.505880820945136,-59.38415715176732
-4.03863748,-20.1931874,5.610699500257693,-1.1364819042916672,0.0,0.8761000000000001,164,5,123.47229216223712,417.1934,mp-8579,Ba(AgS)2,https://materialsproject.org/materials/mp-8579,21.70573795409228,-7.772934176838134,13.428085245966587,16.312851408321063
-4.110383560384617,-213.73994514,3.729595453258174,-0.3498075965968408,0.0,1.5138000000000005,62,52,1409.503476024906,3165.765832,mp-559307,Cu3P4(SI)3,https://materialsproject.org/materials/mp-559307,-2.2291630216317384,-0.7108517932575048,-31.91995284411617,-35.47464318227839
-4.951296159166667,-59.41555391,8.521351809431055,-0.4073734325,0.0,0.0,205,12,279.13325326180745,1432.422,mp-754,Te2Rh,https://materialsproject.org/materials/mp-754,28.169827022929105,24.77203053329568,38.17861509487236,-23.867709257417108
-7.183759072222222,-646.5383165,3.628092430087927,-2.937875535444443,2e-07,3.1069999999999998,9,90,1388.5213757170675,3033.7642,mp-532540,Sr3Ca6V7BiO28,https://materialsproject.org/materials/mp-532540,-23.95296212031612,-34.76363051723392,-20.416243722654965,-27.630519529034963
-5.5508430505882345,-188.72866372,3.6036003388314812,-2.2998520306896544,0.0,3.273,15,34,624.0518568130626,1354.2791999999995,mp-559477,Rb5LiSi2NiO8,https://materialsproject.org/materials/mp-559477,-4.6942720490439065,-33.51701015839149,-0.07833259367309353,-28.970166643617144
-7.087735889772728,-311.86037915,3.0555583852380828,-3.250281745854481,0.0062677,5.1991999999999985,173,44,545.9609197067127,1004.622852,mp-41472,Ca5P3HO13,https://materialsproject.org/materials/mp-41472,-18.57647395594761,24.72451789869976,-11.40745524087292,16.69206756194053
-4.04685849,-194.24920752,5.015972170868868,-0.6022213598480911,0.0003637,0.9684,2,48,1003.5150603424016,3031.3070000000002,mp-1219303,Si3Ag10S11,https://materialsproject.org/materials/mp-1219303,15.630704155589822,-14.554251193464218,2.7886000381963307,-23.541451439636734
-4.04638053,-48.55656636,2.282341089858648,0.10527590000000052,0.000137475,0.0,6,12,234.20432708647652,321.904,mp-1073604,MgSi2,https://materialsproject.org/materials/mp-1073604,33.14192795216878,22.51740348093072,55.34983946379234,-2.912832204901255
-5.1296375,-20.51855,6.796557942522713,-1.5484070399479175,5.3e-06,0.0,123,4,82.88751894197588,339.2572,mp-1225499,ErAgS2,https://materialsproject.org/materials/mp-1225499,22.68487345417325,10.562410075207387,29.062428661987447,-41.11831174633463
-5.69406582,-91.10505312,5.501146647746049,-1.8485422775390632,1.5e-06,0.004000000000000448,55,16,350.0018715296904,1159.51,mp-7355,Sm2SnS5,https://materialsproject.org/materials/mp-7355,13.455388564292988,-5.847557644874017,-1.0538807289464145,-12.907407412920357
-7.25514484969697,-239.41978004,2.62046999423452,-3.274931706772425,0.0,4.4785,2,33,453.0718936623262,714.9854799999999,mp-1183664,Ca6Si6H2O19,https://materialsproject.org/materials/mp-1183664,-52.07858404883413,18.61964155883629,-29.50049972173223,18.532497956426283
-4.752172792222222,-513.23466156,1.7824063116347808,-0.6568852535451839,0.0,3.3967,61,108,1290.8865536770468,1385.6249599999999,mp-568812,CdH16C4(NCl2)2,https://materialsproject.org/materials/mp-568812,-27.36231069091424,-2.8910262581165416,-62.39439049955686,-17.603543467186014
-3.9879190184375,-255.22681718,3.7540272996270176,-0.5523634151495633,0.0,1.7605,14,64,2259.80157673543,5108.796966800001,mp-1201199,Cs3As(PSe3)3,https://materialsproject.org/materials/mp-1201199,-8.809405958375601,-6.758312219140687,-29.79848994948618,-48.34451971906783
-4.5430633841666666,-54.51676061,3.197264169729068,-0.38012904291666655,0.0,0.0,191,12,208.149178252444,400.7782374,mp-11350,CaAl9Co2,https://materialsproject.org/materials/mp-11350,16.15030740293747,21.800291513623492,24.665784599701354,-40.10241113147439
-3.718513113636364,-40.90364425,4.136048445375414,-0.98135780782197,0.00031489999999999996,0.0,156,11,248.2159618427623,618.253,mp-637614,Zn3(InS3)2,https://materialsproject.org/materials/mp-637614,-1.402134973818509,10.030445765239794,-14.117767507203979,-71.18399640438204
-5.973149243333333,-71.67779092,6.493157946836504,-2.1410664877083345,6.6e-06,0.5869,14,12,236.6986733250552,925.556,mp-1101873,ErS2,https://materialsproject.org/materials/mp-1101873,14.445731080039465,-5.223382406962182,3.7925862026063073,-8.943921806373716
-8.218370121111112,-73.96533109,6.390875989089298,-3.386933300320556,19.0022484,0.0,139,9,154.8625251363948,596.0156127999999,mp-1080739,Eu3(SF2)2,https://materialsproject.org/materials/mp-1080739,14.341776570839029,-6.005951372477715,4.757667367766372,-10.351124503110592
-7.68557728,-507.24810048,4.342096151744864,-3.4889810364242426,0.0,4.5794,40,66,1037.2959341056428,2712.39553856,mp-559502,Ba3NaNd3(Si3O10)2,https://materialsproject.org/materials/mp-559502,-24.76752522158685,-36.68500572248848,-18.869400242504927,-14.453487161912037
-3.919550614166667,-141.10382211,5.4843445649738705,-0.9507419652777784,0.0,1.3384000000000005,62,36,1337.233700244153,4416.548,mp-1200935,Ba2GaSbTe5,https://materialsproject.org/materials/mp-1200935,6.345934255297988,-31.153309026858143,-1.4656378777902757,-31.332950014800673
-5.016088740370371,-135.43439599,8.116776707539955,-0.1607198811111114,4e-07,0.0,2,27,649.2504716997572,3173.5605,mp-684869,Te16Rh11,https://materialsproject.org/materials/mp-684869,33.98542537368237,21.379162214802413,54.69487305349303,-1.9948091553170424
-6.38190500625,-51.05524005,6.619719215611651,-0.05202733625000011,14.9860595,0.0,12,8,180.94280398301376,721.3263450000001,mp-1221834,MnCr3Te4,https://materialsproject.org/materials/mp-1221834,22.113504766093058,8.521910141452729,56.56971388470314,-23.662483085616106
-4.859647858888889,-43.73683073,4.365910538808201,-1.558237352064176,0.0,1.3169999999999995,5,9,231.10723561107,607.6301076000002,mp-645330,Cs4CO4,https://materialsproject.org/materials/mp-645330,-7.214075513068272,-14.64998364391349,-36.988624586418815,-12.289313722977129
-5.803784940714286,-162.50597834,6.6261414285652425,-2.0158559958928586,0.0,2.2814,62,28,674.9557884964228,2693.31368,mp-1194087,Tm2PbS4,https://materialsproject.org/materials/mp-1194087,7.8684002091054674,-5.256739798523037,-6.892317552463613,-12.85008622470306
-3.480165695,-27.84132556,3.879809316899976,-0.7175971397343752,8e-07,0.9766,217,8,216.80913762179725,506.56930784,mp-8703,Na3SbSe4,https://materialsproject.org/materials/mp-8703,-0.22384665085792999,5.693725982875431,-26.454613280114284,-73.61144057006597
-2.8861900275,-11.54476011,3.639105238095621,-1.492697590599224,0.0,1.8073,123,4,142.2354317225635,311.71185510000004,mp-28650,CsBr2F,https://materialsproject.org/materials/mp-28650,-6.968263489579991,-13.748183163929406,-34.73720298899978,-13.469612409747672
-5.51962323875,-132.47095773,4.490727872786963,-3.3112439909658336,7.99999855,3.5076,11,24,410.28694814321017,1109.5716447999998,mp-1214722,Ba2Fe2ClF7,https://materialsproject.org/materials/mp-1214722,-12.9291925356666,-22.105208792107927,-14.484759071121118,-19.212090623127477
-4.699503461363637,-103.38907615,6.912427688246581,-1.091094228561422,0.0,1.2615000000000005,63,22,513.254241327665,2136.5549038,mp-581696,CsLu2Cu3Se5,https://materialsproject.org/materials/mp-581696,31.928853039451408,-3.5572048511383114,2.9411214603975573,-21.281505527604264
-4.197987975652174,-386.21489376,5.021625226109769,-0.7413458810794605,0.000394625,1.0936000000000003,14,92,3765.6161879020397,11387.5752304,mp-667336,Cs4Zr3Te16,https://materialsproject.org/materials/mp-667336,14.39713755022349,0.4438907135016946,-15.084831952726912,-5.9159493989125735
-6.8105288026086965,-313.28432492,5.7191233909596875,-2.1727418969565218,8.8e-06,3.023000000000001,15,46,693.9551570186836,2390.0764,mp-642792,BaBi2(MoO4)4,https://materialsproject.org/materials/mp-642792,-52.02455037137264,-51.712344768250894,-24.896928952711143,-59.20533189492978
-7.994348990500001,-159.88697981,5.517636219260205,-3.3831334120500016,0.0,3.6165,12,20,310.8735715209997,1032.97016,mp-558128,KNd2NbO6,https://materialsproject.org/materials/mp-558128,-12.48744207002041,-59.56344407748828,-18.754800607167706,-57.299645138943475
-8.08168937375,-193.96054497,4.8938919861180405,-3.210113100833334,0.0,3.5173,14,24,344.5264585100679,1015.37828,mp-18989,LaVO4,https://materialsproject.org/materials/mp-18989,-20.575269426131406,-35.787906965453956,-16.891540786197766,-26.419913491064097
-4.165144943975904,-345.70703035,4.0770951326960505,-1.1256338461646591,0.09160750000000001,0.16159999999999994,8,83,1931.8061664173315,4743.133,mp-685878,Mg9(In13S24)2,https://materialsproject.org/materials/mp-685878,10.646949060954947,13.039796260897456,-20.53730675790901,-76.1508129254233
-5.514938889166667,-66.17926667,8.75283085877931,-0.3313224291666674,0.0,0.11470000000000002,205,12,270.3583575763537,1425.08,mp-1848,Te2Ru,https://materialsproject.org/materials/mp-1848,27.95599841958065,24.819291257564092,38.189444529547075,-23.95365801417625
-4.502332036136363,-198.10260959,2.5763565800983512,-0.515565884791786,0.053627275,0.0,130,44,1101.7657253183577,1709.4096,mp-1245406,Rb2Ca5N4,https://materialsproject.org/materials/mp-1245406,-5.588985007721778,-18.94986314977222,-20.01605839941015,-15.0242833154538
-7.048200187205883,-479.27761273,3.854767225749815,-2.704699433443445,0.000141725,4.5019,62,68,892.1370451892698,2071.002584,mp-1195921,La2P3(HO3)3,https://materialsproject.org/materials/mp-1195921,-34.47716649091715,-24.89615655620925,-14.9480984885042,-1.568524177437029
-2.9885764120833334,-143.45166778,4.3294512308317,-0.8598008934140626,0.0,1.4673000000000005,62,48,1264.1519118769254,3295.96830848,mp-28851,Na4Cd3Se5,https://materialsproject.org/materials/mp-28851,19.927147886596103,13.161440095390216,-11.869135977641436,-11.818498202852693
-6.327121304583333,-151.85091131,5.246738811288735,-2.0291082169531247,4.0000001,0.0,173,24,558.1233393891637,1763.48,mp-1192911,Sm4FeS7,https://materialsproject.org/materials/mp-1192911,9.129829318361883,-7.140921497660693,-7.826717818290566,-10.312487895361373
-6.9461337133333325,-166.70720912,3.2610319439718105,-2.6093175086904763,4.0,0.0,2,24,339.54683759720365,666.8154480000002,mvc-3031,SrFe(PO4)2,https://materialsproject.org/materials/mvc-3031,-32.66173567209813,-26.56587296855397,-29.322225897377912,6.371475471726074
-7.381028212954546,-324.76524137,3.7047127378169917,-3.138347477275975,0.0,4.4754000000000005,62,44,602.1228472278908,1343.35425312,mp-560939,NaLaP2O7,https://materialsproject.org/materials/mp-560939,-34.578255794458734,-24.974374965786925,-37.043508244552726,-33.09084131901916
-11.580841312,-57.90420656,7.233402461769242,-3.5640281083125003,14.000000400000001,2.0194,164,5,86.90515595574861,378.5638,mp-4805,Gd2SO2,https://materialsproject.org/materials/mp-4805,1.3283913950984356,-59.106374881673965,5.948765774099723,-55.08174794551144
-3.919988455,-627.1981528,3.5386343901131503,-0.3615394926034483,0.00019005,1.457,61,160,5862.779388506978,12493.673599999998,mp-680413,Rb3As7,https://materialsproject.org/materials/mp-680413,-9.27813315298044,-1.7470077849337022,-33.779610236678145,-44.943068232922585
-5.763637955178572,-645.52745098,4.087248186770801,-2.207251195357144,0.0,1.5708,227,112,2946.520120535498,7252.56,mp-1232111,Sm2MgS4,https://materialsproject.org/materials/mp-1232111,14.270106738110846,7.759927054154698,-25.506338598391935,-76.85999319752943
-5.065225362750001,-202.60901451,4.7543776766923,-3.037091861333,11.00588195,0.7755000000000001,15,40,545.7456087641713,1562.5532896,mvc-2230,Ba2ZnFe2CuF14,https://materialsproject.org/materials/mvc-2230,-14.399303977994466,-20.859205708129746,-13.001351332283358,-18.457649443840932
-3.5544623556666664,-213.26774134,6.001685029177301,-0.3927758725138891,0.0,0.5350999999999999,33,60,1299.3341330392768,4696.1824,mp-15645,Ag8SnS6,https://materialsproject.org/materials/mp-15645,15.658554746349038,-14.791174107399273,2.3910833585868105,-23.757772457938668
-5.771119461750001,-692.53433541,3.350542876757331,-2.160183795706,0.4969852625,0.0,88,120,2910.523903634471,5872.69248,mp-1198309,Sc5OsCl9,https://materialsproject.org/materials/mp-1198309,7.426425161530383,1.7214485216318716,-0.11436105924476545,-22.16508995529152
-3.414789546125,-273.18316369,4.105778126606615,-0.4441120062413795,0.0,0.9606,57,80,2903.846506750266,7179.927230399999,mp-1201920,CsSe4,https://materialsproject.org/materials/mp-1201920,-7.910277012453989,-6.0743558405325455,-29.729359268674536,-47.62682883410832
-4.0248426154166665,-386.38489108,3.9070402272811466,-1.531136695243437,8.76125e-05,1.0955,60,96,2315.438322675161,5447.9361536000015,mp-1208562,Te2As(SeF2)3,https://materialsproject.org/materials/mp-1208562,-3.5199432138792943,-6.022865230787669,-31.46069605459756,-34.37034241218398
-6.4753145170833335,-155.40754841,3.9205924042861664,-1.9327162069531247,1.00000005,0.0,173,24,488.8424325149034,1154.1745672000004,mp-1191639,Y3AlCoS7,https://materialsproject.org/materials/mp-1191639,13.899401220991301,-15.104706550554305,-1.3203240569690975,-17.841221510605216
-6.2740100420000005,-125.48020084,4.976283075198631,-3.3198123931009995,1.2e-06,3.1783,9,20,330.0773040334928,989.1716256000001,mp-1214599,Ba2MoO3F4,https://materialsproject.org/materials/mp-1214599,-16.987964641207842,-23.06042668954332,-5.030794677152843,-15.876652896368642
-4.026900258571429,-84.56490543,3.9619909798026733,-1.2419015551150798,3.9999801,0.0,87,21,790.7546152464906,1886.7142399999998,mp-1190669,K4Ti4I12O,https://materialsproject.org/materials/mp-1190669,9.613541279107967,7.622113456260373,-19.923690861333533,-14.92494359645273
-7.106868253499999,-142.13736507,7.2703407436863925,-3.0488533228749994,0.0,2.6492,14,20,378.8203165759055,1658.5895999999998,mp-8762,Er2S2O,https://materialsproject.org/materials/mp-8762,12.574252100007493,-3.2840398236724857,14.349321585823564,-40.37378673255764
-3.9891543092857145,-670.17792396,4.055476546422214,-0.21900458163903075,2.7908333333333332e-05,1.2863000000000002,4,168,4275.138096702053,10441.020576,mp-680446,Cu3P4Se4Br3,https://materialsproject.org/materials/mp-680446,-8.6613447366894,-2.3039908581054047,-33.683328350472266,-46.027873357517045
-7.39910691,-177.57856584,4.8291754990417335,-2.427437829683908,6.0013442,0.0,49,24,415.88967057023575,1209.4893037999998,mp-1213374,CsEu(MoO4)2,https://materialsproject.org/materials/mp-1213374,-49.414090544276476,-51.50242501454643,-29.899467493149785,-54.818338281781855
-6.53762315,-111.13959355,5.694543917413247,-2.1459049522623523,6.0000002,0.0,146,17,219.0708552771716,751.267255,mp-1218274,SrLa3MnO12,https://materialsproject.org/materials/mp-1218274,35.31733920769452,-78.776927903953,66.9895101109943,-36.895536783610225
-8.750850852857143,-122.51191194,5.330127329606218,-2.4613099901785724,13.98817795,1.3968999999999996,122,14,300.8451015952573,965.676,mp-36358,Ca(GdS2)2,https://materialsproject.org/materials/mp-36358,18.914004498454855,-3.9648483555185012,8.37659297857032,-8.848130383991453
-5.708722868223684,-867.72587597,3.6405252508945942,-3.4507165314984207,15.000309625,3.3267,15,152,2140.8526869819157,4693.553164159999,mp-1201930,Na3Sr4Cr5F26,https://materialsproject.org/materials/mp-1201930,-15.097822304693134,-24.857394770257287,-15.645986678339407,-18.51778670198188
-3.528615003333333,-21.17169002,2.446063388934128,-1.0802431516666664,3.06e-05,0.0,8,6,209.17599493223057,308.1275,mp-568752,Ca3SiBr2,https://materialsproject.org/materials/mp-568752,14.215478695410026,1.7506830992081002,-16.477780052598572,-8.718943111279128
-7.085699670514706,-963.65515519,4.113022951505546,-3.1611406945588234,0.0,4.1875,230,136,1724.2333966064637,4270.7888,mp-554003,Sr4Li(BO3)3,https://materialsproject.org/materials/mp-554003,-18.5415117019858,-31.54572666313169,67.02705961543083,-36.85000495330407
-6.33862493125,-50.70899945,6.648031036357187,-0.07843457624999939,13.839884699999997,0.0,10,8,179.90880990784282,720.271745,mp-1221613,MnV(CrTe2)2,https://materialsproject.org/materials/mp-1221613,22.13706630533246,8.539343155408577,56.561899179556505,-23.663681736778567
-5.462334355,-21.84933742,4.857468334380573,-2.1086164782812507,2e-07,0.3119000000000001,123,4,80.67770665179367,236.00132000000002,mp-1222279,LiHoS2,https://materialsproject.org/materials/mp-1222279,13.307600319639587,9.45374793091638,-27.185299994456354,-77.5958724354617
-3.34384829125,-240.75707697,4.2583483495770045,-0.4487246634722225,0.0,2.0175,33,72,2733.9455091422296,7011.031999999999,mp-567352,Ga(SbBr)4,https://materialsproject.org/materials/mp-567352,13.852069278101823,-0.1065423832515818,-15.323074245750366,-5.90875654639042
-7.1277743010000005,-142.55548602,5.932665894920735,-2.7885304263939994,8.999999,1.8543,166,20,292.8375444015146,1046.230935,mp-561553,Ba4CeMn3O12,https://materialsproject.org/materials/mp-561553,-11.872739911626505,-83.30830805360995,16.72379939379507,-73.65799887434315
-4.334796239,-86.69592478,4.8721517170963935,-0.6473699643437506,0.0,0.6631,62,20,518.7455127008715,1522.04,mp-1219003,Sn2SeS2,https://materialsproject.org/materials/mp-1219003,6.182894010987865,0.7382863868947623,-28.608358660744837,-38.2236331831329
-3.6118197725,-72.23639545,4.1198328001677735,-1.7085510465862073,0.9600313,0.0,189,20,762.9880471853483,1892.98963,mp-1209342,Rb5Tm3Br12,https://materialsproject.org/materials/mp-1209342,0.2950020657330737,-6.896312451211253,-13.398876412330413,-5.031768719100625
-4.724530806363637,-207.87935548,4.8723086141401994,-0.6847807403693182,0.0,0.5543999999999998,14,44,1634.6895426145038,4796.46172,mp-541158,Nb3SI7,https://materialsproject.org/materials/mp-541158,11.236016753657392,4.128344276271552,-11.576024373615994,-7.335710067670169
-9.143810106428571,-128.01334149,7.841784436390671,-4.096630524196427,1.9970904999999999,0.06949999999999967,8,14,217.773065286253,1028.41872,mp-754058,Ce3Th2O9,https://materialsproject.org/materials/mp-754058,-24.03807825926205,-70.28034487421134,-8.176615186611928,-78.30188885296711
-2.278349499,-22.78349499,7.190746053586932,0.10037208500000007,0.00026895,0.0,227,10,346.7849857928965,1501.7068,mp-1207772,Yb4Ni,https://materialsproject.org/materials/mp-1207772,-2.831739830719244,-64.69514888657186,-9.331629179215382,-79.12266336662117
-6.238364335,-49.90691468,6.747475147514013,-0.08753213999999954,3.992378375,0.0,62,8,179.68887228548164,730.1521799999999,mp-1080073,MnTe,https://materialsproject.org/materials/mp-1080073,22.069554683099238,8.56123339361611,56.659407594250276,-23.658571115774727
-3.199508484,-63.99016968,3.5573953458252574,-1.0942438810689654,0.0,1.9935,33,20,742.7853747660927,1591.2792,mp-28558,RbGeBr3,https://materialsproject.org/materials/mp-28558,-6.468935568260584,-6.66084583425699,-22.66719190932447,-31.331260932273807
-3.7618689196428567,-210.66465950000003,5.210885630360156,-0.7770986021071431,7.5225e-05,0.03709999999999969,62,56,2013.5069139818202,6318.52307712,mp-1214620,Ba5Na(GaSb3)2,https://materialsproject.org/materials/mp-1214620,6.201735532783834,-31.57862394035425,-3.2722765217242147,-30.34336807191202
-3.744742761666666,-89.87382628,4.510075754273888,-0.18418457527777807,0.0,1.0812,62,24,370.7907403522545,1007.0792,mp-755991,AgBrO4,https://materialsproject.org/materials/mp-755991,-0.9762181848871698,-30.593529560734925,-4.308847047846052,-33.513472772999265
-6.1864562369230764,-241.27179324,2.6236867866394453,-2.4194436689903847,2.0000002666666665,1.0804,145,39,547.3609043720146,864.8417999999998,mp-1196095,Ca2S2O9,https://materialsproject.org/materials/mp-1196095,-53.61418630637008,18.393035402186502,-41.50197873317622,-59.495387563526506