energy_per_atom,energy,density,formation_energy_per_atom,total_magnetization,band_gap,sgr,num_sites,cell_volume,weight,mp_id,formula,URL,tsne_cry_0,tsne_cry_1,tsne_xrd_0,tsne_xrd_1
-2.96337892,-5.92675784,3.8335048331919124,0.7180081818965518,1.001667,0.0,187,2,96.08083003549902,221.8113019,mp-984762,CsY,https://materialsproject.org/materials/mp-984762,-32.99379880397745,-49.033860636593005,-22.49481777515131,-66.79430195269194
-3.52240951,-21.13445706,2.4122420308190535,-1.074037658333333,0.0845819,0.0,8,6,212.1087919498159,308.1275,mp-568791,Ca3SiBr2,https://materialsproject.org/materials/mp-568791,14.182098192729454,1.852224002483076,-16.67062760297424,-8.135467079787261
-5.788255939642857,-324.14233262,4.657380968798005,-2.2318691798214294,0.0,1.3772999999999995,29,56,1292.9110910858706,3626.28,mp-1232090,Sm2MgS4,https://materialsproject.org/materials/mp-1232090,12.447276916651495,5.066163988670129,-10.59253384430565,-8.322927172823258
-5.856080661304348,-134.68985521,1.9632257705704796,-0.4079489551952168,0.0,3.281,2,23,322.1037379171256,380.81752,mp-24307,CdH8C4(S2N3)2,https://materialsproject.org/materials/mp-24307,-30.1623064773108,-5.730540216744214,-67.31640953748885,-12.480252608102134
-6.849045202999999,-136.98090406,6.294689393991512,-2.8749553782499997,2e-07,3.1474,1,20,365.00285537451737,1383.6348,mp-1228775,Ba3WO6,https://materialsproject.org/materials/mp-1228775,-16.631791018805067,-79.90505667709427,-19.734633800176805,-54.950948373178214
-5.000713364166667,-60.00856037,4.47545454301888,-3.170628301626667,1.9999996,4.6974,36,12,164.9662487114317,444.6140256,mp-1208631,SrNiF4,https://materialsproject.org/materials/mp-1208631,-13.95404848614612,-26.316752915613613,21.35947163240536,-48.356955502080574
-6.5904638147500005,-263.61855259,5.297073697493548,-1.6633831411874993,3.0005794125,0.2070999999999996,58,40,779.1693759891057,2485.5288,mp-1225651,DyCrS3,https://materialsproject.org/materials/mp-1225651,13.538427102804734,-14.33375751554671,-18.79871603774997,-34.01907686049665
-9.1079502796875,-291.45440895,6.678123118406723,-3.9905144257812495,0.0,4.0102,62,32,533.4095527451401,2145.19176,mp-768234,La2HfO5,https://materialsproject.org/materials/mp-768234,-30.24856164413762,-58.11937425454485,-19.93370813773211,-57.705170849741535
-3.067915925,-24.5433274,4.1436363932416205,-1.5099745298483906,0.0,2.3395,63,8,249.80774413397282,623.3593038,mp-542772,CsAgCl2,https://materialsproject.org/materials/mp-542772,-7.659163349080769,-11.596765236581351,-14.094070826711825,-25.0821252493453
-3.76336626125,-120.42772036,4.0672854386241095,-0.6328086058485987,0.0,1.4159,61,32,1194.5800561276708,2925.9764152,mp-28563,CsAsSe2,https://materialsproject.org/materials/mp-28563,-7.905076041108662,-6.0583299967734625,-29.749268586755605,-47.358653428417846
-2.649786322,-26.49786322,3.4208793426903314,-0.7711710777877154,0.00100375,1.2422,11,10,392.3493630091128,808.2796,mp-998299,RbSeBr3,https://materialsproject.org/materials/mp-998299,-6.133620032151092,-5.257985862215733,-31.92536788935699,-39.69191696589486
-4.398077339714287,-153.93270689,3.780773663850233,-1.5787569479835792,0.9569674000000001,0.09230000000000003,225,35,1247.3355362444952,2839.9774,mp-1209464,Rb8Zr6BBr20,https://materialsproject.org/materials/mp-1209464,8.036484614206438,-0.6324852490207576,-8.243607164212028,-20.2178409031754
-5.253599869375,-84.05759791,2.7783340272211308,-1.83831917196625,5e-08,4.4464,1,16,166.93040379048833,279.29992000000004,mp-626750,SrH4O3,https://materialsproject.org/materials/mp-626750,-16.004760505853234,-27.189249722916063,-34.42227340599545,-35.17343599489905
-7.12497693,-78.37474623,6.399850932876028,-1.1134442922077932,0.0026190000000000002,0.0,166,11,266.85160215234316,1028.467524,mp-1215367,Zr5(Te2P)2,https://materialsproject.org/materials/mp-1215367,21.66301505037084,-1.6704247065244522,16.281685954669932,-7.898357280886456
-4.8706925890909085,-214.31047392,4.076915518340494,-1.8295200186481189,6.555e-05,2.4295,62,44,1084.0578647114846,2661.5528,mp-867570,Rb4Sb2O5,https://materialsproject.org/materials/mp-867570,-4.579244457946081,-29.28530255743842,-27.79697343166708,-58.90796228581891
-4.904262901,-49.04262901,3.1700318564566805,-3.1798698046473333,0.0,3.878,225,10,174.950203397016,333.9865578,mp-1112188,K2AlInF6,https://materialsproject.org/materials/mp-1112188,-54.366300760128276,-74.18582950701,-53.63510209392511,-58.27241196338264
-6.393878841857142,-447.57151893,3.5970202086177028,-2.116742770294643,0.0,2.4376,146,70,1485.0364579982556,3216.850686,mp-1216384,Y9Al5S21,https://materialsproject.org/materials/mp-1216384,13.867588850838688,-15.155543446914386,-1.3074672135002698,-17.722679400907253
-8.1933963012,-409.66981506,4.513558781837036,-3.126291353983333,0.0,4.386499999999999,13,50,444.6367424690327,1208.57988,mp-1019892,La2B8O15,https://materialsproject.org/materials/mp-1019892,-18.466415278773557,-29.774877228740372,-3.041713530344861,-18.648497454745623
-6.224455736666666,-37.34673442,4.02628855319369,-1.8069106329166664,2.00000015,1.4546,59,6,121.12479572855177,293.6898,mp-27841,VBrO,https://materialsproject.org/materials/mp-27841,11.447766412098034,-19.81419429130682,8.025489650697796,-20.82942019440464
-4.741038882142857,-66.37454435,3.109468189700097,-1.616515856607143,9.5e-07,1.0664000000000002,20,14,349.38803734887614,654.252,mp-866829,Ca2SnS4,https://materialsproject.org/materials/mp-866829,-5.164659457063898,2.6749379144618666,-38.745288931336546,-36.09095517995723
-4.1514415730000005,-41.51441573,3.1523480272609716,-0.8078847108660717,0.0,1.7969999999999997,148,10,252.4033162293811,479.15952400000003,mp-9330,CdPS3,https://materialsproject.org/materials/mp-9330,-8.767552380000094,6.026586899582008,-0.19047961914982373,-21.030287156026162
-2.638610453,-26.38610453,7.063617117294857,-0.005151401000000178,0.0,0.0,108,10,272.0955272551863,1157.4426,mp-29740,Tl(ZnSb)2,https://materialsproject.org/materials/mp-29740,9.553081743786722,-33.42787589237989,4.2319255159470766,-31.925727197597137
-5.023899455227274,-221.05157603,3.7867164875545187,-1.1098084678860822,0.000187675,2.4272,159,44,1654.5256407195416,3773.0034475999996,mp-1213398,CsMo3I3Cl4,https://materialsproject.org/materials/mp-1213398,-5.2556553891022,4.325222562676902,-37.12557177793468,-34.32921551597675
-5.153167870714285,-72.14435019,3.451818892438263,-1.4230257573214289,0.99133335,0.0,74,14,303.30961656579007,630.5,mp-1247234,MgTiInS4,https://materialsproject.org/materials/mp-1247234,1.532259649024955,26.171709090623803,-21.548017504586312,-81.4628878983168
-8.885435416666667,-53.3126125,7.058525914037245,-3.572903221646668,6.00000015,0.0040999999999999925,166,6,87.96663127211653,373.9236064,mp-22338,EuOF,https://materialsproject.org/materials/mp-22338,-19.425909503390255,-68.56480046459185,-8.103764400682898,-68.96259656398284
-5.368406640833333,-64.42087969,8.579676206341826,-0.496173550833334,0.0,0.3721999999999994,198,12,272.71454126100605,1409.062,mp-1219458,SbTeRh,https://materialsproject.org/materials/mp-1219458,28.025538876375165,24.804635056674552,38.19563771800724,-23.96139396328461
-2.923138528,-29.23138528,3.304374843397288,-1.28675577805,0.0,1.4571999999999998,225,10,326.81036501110384,650.3333692799998,mp-1111641,K2NaGaBr6,https://materialsproject.org/materials/mp-1111641,-1.2494182954730957,14.722539492480994,-26.539128328191467,-73.38948362691409
-6.647648039583332,-159.54355295,5.548662008347503,-2.516733577873333,1.3875e-06,2.4463,129,24,373.278181228714,1247.30248,mp-28255,LaHO,https://materialsproject.org/materials/mp-28255,-23.76974377471791,-67.05361411512438,-30.1328526408005,-66.3206598478461
-5.96390504,-59.639050399999995,4.892736145942103,-2.2417409437500004,5.5e-07,1.7574,12,10,330.3929895030866,973.49456,mp-540540,PaBr3O,https://materialsproject.org/materials/mp-540540,10.021703391066481,-0.017393147648572096,-0.3855924868533398,-19.345641139190413
-5.828146127857143,-163.18809158,6.5123431214736165,-2.014722061607143,0.0,2.2545,62,28,683.332928986934,2679.9120000000003,mp-1193142,Er2PbS4,https://materialsproject.org/materials/mp-1193142,7.863488092205382,-5.23474587046428,-6.9489364746892175,-12.81834124723367
-4.6383058375,-37.1064467,5.645651548588506,-0.07143002096354234,2.99650615,0.0,122,8,189.20207191804343,643.2664,mp-1096959,FeAgSe2,https://materialsproject.org/materials/mp-1096959,12.801629197094064,15.7722255867556,-15.854759210896908,-72.39153467946309
-3.93626396,-129.89671068,2.4282128640114284,-0.7430410550030309,3.9992273000000003,0.08879999999999999,2,33,724.8206987951465,1059.9082,mp-1197512,Ca2Cd3(Cl5O9)2,https://materialsproject.org/materials/mp-1197512,-28.79631780101823,-3.2500871412899426,-67.37802123491238,-13.093550193779707
-5.791741252916666,-139.00179007,3.6713885852408414,-3.942448852043333,0.0,7.5245,14,24,312.3089424298841,690.5031792000001,mp-9726,SrBeF4,https://materialsproject.org/materials/mp-9726,-14.963861993303011,-26.33004790022442,66.72274490755743,-14.562708004785506
-4.153282618333333,-299.03634852,3.2032275893077413,-1.1300902737824077,0.0,1.6704,15,72,1889.722260852361,3645.32861696,mp-505798,Na4TiSe4,https://materialsproject.org/materials/mp-505798,-2.557339238749155,-10.29474759014082,-15.706543463384108,-6.2690475770113885
-6.491216776486486,-240.17502073,5.630503103567528,-2.529501727280405,0.0001056,0.0,12,37,899.0740825625197,3048.55188,mp-1197619,La4(DyS2)11,https://materialsproject.org/materials/mp-1197619,8.560064337791443,-2.9585556655703327,-5.046964263138767,-14.347493322373774
-8.56152255875,-273.96872188,5.406427749099243,-3.7031906401562487,0.0,2.0962,36,32,441.5056157562903,1437.46588,mp-1204676,BaLa2Ti3O10,https://materialsproject.org/materials/mp-1204676,6.886008219257999,-91.39882134032688,2.3958832299775823,-37.35544732470041
-7.302751693653847,-379.74308807,2.7999965284660644,-3.1418127674450553,0.0,5.8263,14,52,588.4129471115914,992.180352,mp-6772,CaBe2(PO4)2,https://materialsproject.org/materials/mp-6772,-54.902032748664006,17.183377204916194,-30.625768029449297,-1.328170991154124
-5.450215505,-21.80086202,5.217043379117938,-1.0975084680468743,0.0,0.6390000000000002,156,4,84.79975224247474,266.421912,mp-1219312,ScCuSe2,https://materialsproject.org/materials/mp-1219312,14.591983356564699,23.2411551660638,6.367034808048311,-59.6563060074951
-7.89601249,-31.58404996,4.5265440901533145,-2.165957922031251,7.0000005000000005,1.5727999999999995,166,4,83.75836545513434,228.321,mp-1222370,LiGdS2,https://materialsproject.org/materials/mp-1222370,13.489973057186715,9.448484812579967,-26.652152899786355,-78.15752798594717
-6.400709707750001,-256.02838831,5.927102062963889,-2.473403817687502,4.1375e-06,0.6365000000000003,11,40,917.5166802740846,3274.96968,mp-1197152,NdTmS3,https://materialsproject.org/materials/mp-1197152,12.237931459460954,-6.547322996579277,-2.9064218551405685,-12.855131938244456
-6.4728391775,-25.89135671,6.344018075109847,-0.4606023908333343,0.00018785,0.0,194,4,88.79932320596448,339.254,mp-2187,TiSb,https://materialsproject.org/materials/mp-2187,22.354784871958127,8.600712425409737,56.50723633583236,-23.681712475512803
-3.786544226666667,-22.71926536,6.088844558972892,-0.32241610024305584,0.0,0.6406999999999998,36,6,110.9849831623768,406.9584,mp-1077811,CuAgS,https://materialsproject.org/materials/mp-1077811,19.773989940524064,7.999348957484599,23.02137078971601,-40.060143475949594
-6.817292522307692,-620.37361953,2.8107509664027246,-2.7768037060989017,0.0,2.7947,146,91,1282.7262036392551,2171.237068000001,mp-686015,Ca3(PO4)2,https://materialsproject.org/materials/mp-686015,-18.934988462504478,24.852698502505774,-12.936035678270198,15.454796438618073
-4.070189905,-16.28075962,4.6411193134617195,-1.621170790656251,0.00042439999999999996,0.0,166,4,93.08216926761318,260.15976928,mp-4494,NaYbS2,https://materialsproject.org/materials/mp-4494,14.585789228435598,8.514899088991426,-25.589269970336968,-76.72595242731595
-6.840198790833332,-82.08238549,4.889686793843999,-3.910670998293333,6.99999985,0.28580000000000005,63,12,171.33691156422483,504.5252256,mp-9539,EuMgF4,https://materialsproject.org/materials/mp-9539,-14.100313105277527,-30.721067197725567,-17.381820337387126,-17.08086804035044
-1.40770677,-8.44624062,5.169870788401894,-0.2937704599999999,0.0,2.3222,36,6,291.90175557090174,908.79788,mp-23173,HgI2,https://materialsproject.org/materials/mp-23173,-14.51540397696774,-2.0030997633181,-44.56906938104415,-37.28273445999387
-5.364619416511628,-922.71453964,3.6694014950795792,-1.9059313448788373,1.325e-06,1.5084,14,172,1901.8753982123249,4202.69819712,mp-1221694,NaSr6H17Pd2O17,https://materialsproject.org/materials/mp-1221694,-14.25635245698603,-29.610240120335078,-1.6833122112300145,-22.31988145681376
-4.826400593125,-154.44481898,3.817079405190287,-2.968569783329957,5.0000003,3.6931,62,32,559.9212739922468,1287.090464,mp-28600,Rb2FeF5,https://materialsproject.org/materials/mp-28600,-29.77843318265245,-20.787009769388835,-12.94799891906669,-20.25662260378013
-6.8081852558823535,-115.73914935,4.310018856873142,-2.8385457369222697,1.0,0.0,8,17,252.73204462037984,655.979686,mp-1188260,Ba2CdP3O11,https://materialsproject.org/materials/mp-1188260,-26.57137846053768,-26.063294822166142,-20.555961540311717,-30.915382722864614
-7.1737375525,-229.55960168,6.092515741524989,-2.280616683789063,1.9755009999999997,0.0,62,32,674.8947427996818,2476.188,mp-985298,Ce2HfS5,https://materialsproject.org/materials/mp-985298,13.439847881105107,-6.527899934954967,-1.4658544115531786,-11.797753632714116
-8.652433130666669,-129.78649696,6.91617757958209,-3.7428547239166656,2.0000001,0.0,12,15,236.4192019083214,984.6906,mp-561149,Ce2O3,https://materialsproject.org/materials/mp-561149,-8.563577857145651,-62.624486021863156,-0.3669256006588804,-59.00636152474458
-4.38191793125,-105.16603035,4.06726315613852,-1.01601193225,2.5e-08,0.411,14,24,901.8190658337564,2208.8824,mp-29602,K2ZrTe3,https://materialsproject.org/materials/mp-29602,13.995054557921073,-0.007351765025003544,-16.161213215154184,-5.65096675661134
-2.866248868125,-45.85998189,3.702298903142647,-0.6126512281250003,0.0,3.1147,62,16,648.5034121446818,1445.888,mp-570005,SbBr3,https://materialsproject.org/materials/mp-570005,-7.348209618129629,-0.9735953885377364,-35.14425246934814,-47.71560894646297
-6.715108216470589,-228.31367936,5.161898860865021,-2.6151951405823533,12.999999800000001,0.7955000000000001,166,34,526.3269511072751,1636.123225,mp-556409,Ba7Ca2Mn5O20,https://materialsproject.org/materials/mp-556409,-11.781611612264056,-82.4026250579212,16.797428142321493,-72.77561610821512
-5.232530822142857,-73.25543151,3.9303640753624687,-1.078786464940476,2.99992615,0.0,74,14,307.0005801303692,726.6460000000001,mp-1246543,MgInMoS4,https://materialsproject.org/materials/mp-1246543,1.6221192724122493,26.19481199249585,-22.437398982153745,-80.26005939928598
-7.672596208333332,-644.4980815,4.267294587918358,-3.108772306666668,0.0,6.3781,205,84,808.95596911948,2078.8752,mp-8878,Sr(BO2)2,https://materialsproject.org/materials/mp-8878,-18.784091517935394,-30.613748293487703,52.11611596442246,-2.011994186953087
-4.016739237333334,-60.25108856,5.172952208405998,-0.4237549522499999,0.0,0.2652999999999999,81,15,383.55419614405946,1194.8575,mp-1224530,In3Cu3SiSe8,https://materialsproject.org/materials/mp-1224530,13.711840223329489,15.047524453207474,-16.538194941823168,-73.30573703598364
-5.8491617896875,-187.17317727,4.349454876311723,-3.4208559311424573,6.000000325,0.017800000000000038,33,32,638.1722423524735,1671.5664639999998,mp-1209763,Rb2EuF5,https://materialsproject.org/materials/mp-1209763,-13.149419401556075,-25.17384454651152,-17.425303682523573,-15.511417517966029
-4.90704784,-49.0704784,3.6827246149517623,-3.3870619424036548,0.0,5.828799999999998,225,10,200.56600624112198,444.81300970000007,mp-1111045,CsRb2AlF6,https://materialsproject.org/materials/mp-1111045,-54.80050177245261,-72.28108328584557,-61.77650012220894,-62.1519530610914
-2.818849354464286,-157.85556385,2.9116920349882913,-0.2516474641806649,2.65e-06,2.8353,203,56,1194.752467521555,2094.9529999999995,mp-1179380,Rb8(GaH3)5,https://materialsproject.org/materials/mp-1179380,-8.372564092493155,-12.773978587046841,-26.963561620815838,-34.09879576911525
-3.80740002,-30.45920016,3.9210852295943015,-0.7133122909479175,1e-07,0.5871999999999997,121,8,213.80074387320224,504.8547,mp-9490,KAg2SbS4,https://materialsproject.org/materials/mp-9490,-0.3120809370564557,9.231072464290671,-63.43881852313854,-56.811690636660025
-2.9941114342857142,-20.95878004,3.4196831064889883,-1.3754452128756165,0.0,0.8507,139,7,297.02101759425466,611.6795400000001,mp-760417,Rb4I2O,https://materialsproject.org/materials/mp-760417,-2.4312728112052318,-64.69461862072303,-27.778650770463532,-67.15285274520086
-8.961369728181818,-197.15013402,7.049997800554514,-3.8504480848863647,6e-07,3.4544999999999995,63,22,334.3031637491364,1419.3201800000002,mp-31415,La3TaO7,https://materialsproject.org/materials/mp-31415,-12.71305787640675,-62.43259001264179,-5.662457762591241,-63.72029563275856
-5.8674226140000005,-117.34845228,3.855106185189229,-1.8012885932499998,3.500084775,0.0,160,20,415.524256035454,964.6808,mp-705845,BaFeO3,https://materialsproject.org/materials/mp-705845,-33.14921159678923,-27.477176036897568,-24.277447923327934,-31.71968822396156
-4.043651117142857,-28.30555782,3.8195972695439298,-1.0674017173214292,0.0,2.1155,82,7,165.25279335091963,380.11699999999996,mp-4452,Cd(GaS2)2,https://materialsproject.org/materials/mp-4452,-2.4077203286751785,9.414531076965929,-35.02582775951191,-50.659814633517186
-5.7199029985714285,-160.15728396,4.0630037401671055,-2.1495886773214288,3.8799999999999994e-05,1.9368,62,28,721.0223075234857,1764.1960000000001,mp-1232070,Nd2MgS4,https://materialsproject.org/materials/mp-1232070,12.590804818867344,4.757607688632722,-11.766065972324764,-7.5537963355601585
-7.529542271470588,-768.01331169,4.8120062193227024,-2.6896378958823526,0.0,3.5899,15,102,1576.9470815717702,4569.7685999999985,mp-1210327,Pr2(MoO4)3,https://materialsproject.org/materials/mp-1210327,-53.062331313793614,-52.41904464989885,-25.76269616354218,-64.27274700799487
-4.64306067846154,-60.35978882,3.5248783708276354,-1.2778198928846152,4e-06,1.1176,12,13,326.37478208251497,692.806,mp-1100342,Ca2Sn3S8,https://materialsproject.org/materials/mp-1100342,-4.338379519395601,2.6743105708577586,-24.18182360566997,-75.31134024389313
-6.678947317857142,-187.0105249,3.5467999595627036,-2.8079110625714288,0.0,3.8427,19,28,452.5561650839437,966.6296,mp-556966,KSrVO4,https://materialsproject.org/materials/mp-556966,-22.173047977249414,-30.5509586420825,-8.197720660913825,-23.605648283619853
-4.710735707857143,-197.85089973,4.873309280334471,-0.9975319800000004,0.0005355000000000001,1.0809000000000002,64,42,1602.911081500963,4704.184160000002,mp-1207498,Zr6SiI14,https://materialsproject.org/materials/mp-1207498,10.258085711538973,7.994903357602674,-6.067674855614687,-5.3162453882747664
-7.0415737244444445,-253.49665408,4.915578326847678,-0.4599826803703711,1.39e-05,0.0,128,36,374.8760769793112,1109.7196,mp-1201729,Y4NiB13,https://materialsproject.org/materials/mp-1201729,9.156582851737033,-57.533544508158926,6.730189718680734,-49.46154088089399
-5.396315194444443,-194.267347,6.026517155826371,-1.8357462282417387,4e-07,1.5441,62,36,1134.6492563932386,4117.9298076,mp-17410,CsEr3Se5,https://materialsproject.org/materials/mp-17410,26.209472664516486,-0.07117718002636939,12.610020536569367,3.631830351265775
-7.6598025336363635,-168.51565574,6.603725749022652,-3.2904119042045465,0.0,2.7404000000000006,63,22,330.14956548331384,1312.9575,mp-5448,Pr3SbO7,https://materialsproject.org/materials/mp-5448,-11.6102932595278,-62.43165908165288,-8.523800757277192,-66.13617310556863