energy_per_atom,energy,density,formation_energy_per_atom,total_magnetization,band_gap,sgr,num_sites,cell_volume,weight,mp_id,formula,URL,tsne_cry_0,tsne_cry_1,tsne_xrd_0,tsne_xrd_1
-6.1464590999999995,-24.585836399999998,3.2806967834638323,-1.6238638182812508,5.0000004,0.38290000000000013,166,4,80.55246742586084,159.14604500000004,mp-1227051,CaMnS2,https://materialsproject.org/materials/mp-1227051,22.692887973395013,7.595382650967692,28.82716591954243,-42.53305118852364
-5.395921060833333,-129.50210546,4.5725637543026085,-3.2284448572158326,6.99999995,2.7733,11,24,405.1869520343632,1115.7480348,mp-1228629,Ba2FeCoClF7,https://materialsproject.org/materials/mp-1228629,-12.934389583864627,-22.103404919996134,-14.154098312897089,-19.210874327960173
-8.834154176296297,-238.52216276,8.036357247877435,-4.0272368290277765,0.0066213999999999995,1.9197,160,27,434.3951498937747,2102.30204,mp-675749,Sm6Th4O17,https://materialsproject.org/materials/mp-675749,-23.968923627536054,-70.10737531286378,-8.903935761570926,-78.76650158588461
-4.5969851403333335,-137.90955421,3.241255015109226,-1.2183417154375011,0.0010621333333333332,2.3561,169,30,731.5670395754453,1427.9672315999999,mp-504482,AlInS3,https://materialsproject.org/materials/mp-504482,-6.981102640442106,-0.4970451158906538,-36.893734921671424,-48.72738246037964
-3.9258439714285713,-109.92363119999999,3.6237077637849886,-1.4306884732019702,5.000000900000001,2.5604,62,28,1173.771249389408,2561.4597952,mp-600186,Cs2MnBr4,https://materialsproject.org/materials/mp-600186,-8.210641864107401,-6.878233239595248,-29.4014063454787,-47.78089564002808
-5.5552293682142855,-155.54642231,5.057880304555272,-2.0778881155357145,0.00026465,2.3588,62,28,681.1312814675157,2074.676,mp-1193407,Dy2ZnS4,https://materialsproject.org/materials/mp-1193407,4.773975371354489,-1.0011197446805564,-11.975997773586755,-14.457739751634351
-3.613915485,-43.36698582,6.842795013040522,-0.036846547864583336,4.25e-07,0.0,198,12,262.18617221967264,1080.424,mp-1225744,CuTeSe,https://materialsproject.org/materials/mp-1225744,26.50913471374596,25.440808871726336,38.141804179221396,-24.131888421493354
-5.733243962222222,-51.59919566,4.164366721860623,-2.8112028251950005,0.0,2.4421,1,9,169.38040537997009,424.7790064,mp-1228621,Ba2S2O3F2,https://materialsproject.org/materials/mp-1228621,-24.97726064033102,-24.224520561013783,-21.968076006717208,-9.031053066550603
-3.3309613408333334,-79.94307218,3.848153448884209,-0.6163419382968751,8.205e-05,1.2213,14,24,708.4791156827633,1641.83815424,mp-1190500,Na2TeSe3,https://materialsproject.org/materials/mp-1190500,-3.1737486579260565,-0.25726472605451145,-32.31623552334741,-36.630742609826285
-4.011228512142857,-112.31439834,3.1731637078028707,-1.0340052633124999,0.0,1.2113999999999998,14,28,752.9292055440463,1438.7904,mp-554343,K2CuSbS3,https://materialsproject.org/materials/mp-554343,-3.3783028229752907,-2.710948819005827,-31.987961295101844,-38.08987041814557
-2.9691901222222223,-26.722711100000005,3.833608117446009,-1.2117955595210728,1.23e-05,1.3126,225,9,333.12484118172773,769.0696,mp-569028,Rb2SnBr6,https://materialsproject.org/materials/mp-569028,-0.2185599590058103,14.359742925965366,-28.10207123912859,-70.54257322736714
-4.12451002125,-32.99608017,4.3384465224716235,-0.4569307987499998,1.3637225,0.0,193,8,362.5556508939291,947.23958,mp-570722,NbI3,https://materialsproject.org/materials/mp-570722,10.706160148136703,5.363083679694683,-6.517485055147499,-9.576814286862575
-4.247947905,-16.99179162,5.01944661260951,-1.6565360095312505,0.5065898,0.0,166,4,80.75707879333406,244.111,mp-1067160,LiYbS2,https://materialsproject.org/materials/mp-1067160,13.238782617749367,9.506737618433398,-26.653760824063557,-78.42358601349322
-8.379192092578124,-1072.53658785,5.113704913949297,-3.5294244347135404,2.99999715,0.0,61,128,1681.6093875058007,5178.5920000000015,mp-558019,Ce3Si2BO10,https://materialsproject.org/materials/mp-558019,-19.688051576383103,-35.67642513321448,-17.072804627766942,-32.777470755787945
-3.694591316,-73.89182632,2.1835051039418003,0.20233296699999956,0.005865625,0.0,2,20,404.1758546107629,531.466,mp-1073438,Mg2Si3,https://materialsproject.org/materials/mp-1073438,34.07445404263734,21.849373023542984,55.20516079447986,-2.5468227904507
-5.334328742857143,-37.340301200000006,8.621564968952791,-0.3899752742857144,9.9e-06,0.0,12,7,157.76427266468446,819.1165,mp-1025159,Te4Rh3,https://materialsproject.org/materials/mp-1025159,29.04616681834333,23.743515941548985,26.098679694092056,-43.968102985730425
-6.413434925,-128.2686985,5.888896759087054,-2.4861922994375005,0.0,1.0095,11,20,470.945276973852,1670.1492999999996,mp-1105696,Pr(ErS2)3,https://materialsproject.org/materials/mp-1105696,8.56442813529815,-3.0103950978417013,-5.069674079512039,-14.192839279644351
-2.741388865,-10.96555546,4.2892812983655135,0.2829893885546877,0.0011568,0.0,139,4,122.63877387752844,316.784,mp-1187019,Se3Br,https://materialsproject.org/materials/mp-1187019,12.542533721611331,12.390160719502035,1.5750762895754116,-53.75303731270096
-5.862261848499999,-234.49047394,5.535769890367117,-2.0935201610208325,0.006625125,0.9717000000000002,18,40,909.840439541836,3033.152,mp-1196485,Sm3InS6,https://materialsproject.org/materials/mp-1196485,12.581509701047981,-5.919218301011152,-3.166023655619564,-14.122986227932804
-6.7221875696875,-215.11000223,2.9071213674582164,-3.275450609737857,1.725e-06,5.3708,57,32,481.1314946428472,842.321448,mp-554081,Ca2PClO4,https://materialsproject.org/materials/mp-554081,-16.970798806927693,30.797561562836318,-11.391813713524588,14.865752727723274
-2.945338248,-29.45338248,3.6788194885502787,-1.3555968998522987,0.0,1.8299,225,10,355.76159439649246,788.16736928,mp-1114590,Rb2NaInBr6,https://materialsproject.org/materials/mp-1114590,1.5173811736167062,13.094457574693966,-29.49150654432486,-70.71353058768082
-4.627506108333333,-111.0601466,5.553730744562318,-0.7254292507499999,0.0,0.0009999999999994458,62,24,670.4188041915525,2242.23907712,mp-505173,NaZrCuTe3,https://materialsproject.org/materials/mp-505173,23.08081264562186,1.7021485821299436,-12.085471540139391,-7.943116938466367
-6.059522071666668,-72.71426486,3.8896552876068915,-3.5611957791266664,3.99999975,3.6139,140,12,184.09258355018108,431.2194256,mp-558281,SrCrF4,https://materialsproject.org/materials/mp-558281,13.11205863862303,14.042448379110134,-16.584570357365852,-71.85488728993023
-6.112756566451613,-189.49545356,3.2648050664398296,-2.1577334653225813,0.00015800000000000002,1.7404000000000002,10,31,648.5857419897364,1275.19195,mp-754856,Li7Y7ZrS16,https://materialsproject.org/materials/mp-754856,13.971462509767306,9.659296044360095,-26.635478383744,-78.17974748057226
-5.50538411375,-176.17229164,4.1202987170829015,-3.7475832211424573,1.0025e-05,6.3697,33,32,652.6139876213755,1619.332344,mp-1209616,Rb2LaF5,https://materialsproject.org/materials/mp-1209616,-12.986020719984353,-25.090852895500802,-17.43063923616893,-15.481252884352546
-4.902429905,-68.63401867,5.085644090426453,-3.1253453368610598,4.0000003,4.9542,160,14,211.74308799237926,648.4942288,mp-1219599,RbBa2Ni2F9,https://materialsproject.org/materials/mp-1219599,-10.50643993279042,-81.99545573516616,16.395737295937078,-72.50192484259895
-4.748890956428572,-132.96894678,3.809086062156674,-0.928295109770409,0.0,1.9689000000000003,15,28,637.3274026367633,1461.9559479999998,mp-561467,YAg3(PS4)2,https://materialsproject.org/materials/mp-561467,-1.1783344437470278,-7.826131841197735,-13.605415715939614,-4.490063607991795
-6.56689146652174,-302.07700746,5.758951127841106,-2.5688063241236407,0.10302349999999999,0.0,12,46,1084.2009750799189,3760.1407,mp-669516,La10(ErS3)9,https://materialsproject.org/materials/mp-669516,12.155577006847926,-6.481606477159244,-3.0884921263526004,-13.117533923082506
-4.499365026333334,-134.98095079,3.381777611079838,-1.8829711136666671,0.00023175,3.0458,51,30,1259.960186718319,2565.9771,mp-753942,BaY3Br11,https://materialsproject.org/materials/mp-753942,10.798228971166342,4.251841130787558,-10.420063722021087,-2.269075955551623
-7.242723715833333,-173.82536918,5.253438007213607,-2.8352733959375014,6.9997924,0.07299999999999995,164,24,368.34597934460464,1165.3341,mp-19088,Ba5V5O14,https://materialsproject.org/materials/mp-19088,-11.692371445651824,-82.33202615352758,17.330926862877767,-73.15844898919205
-3.619754218,-36.19754218,3.3879341235189875,-1.2002040270499996,3.0000001,1.3648000000000002,225,10,331.5998067722052,676.55036928,mp-1111637,K2NaMoBr6,https://materialsproject.org/materials/mp-1111637,-0.8245829186056806,14.702101755583653,-28.69214960491227,-73.94408146282714
-2.4944617917857137,-69.84493017,4.198123637994392,-1.2643861235591132,0.00039645,2.479,62,28,1243.6144024413488,3144.0676152,mp-619546,Cs2HgBr4,https://materialsproject.org/materials/mp-619546,-6.833077736495636,-7.8815088357428325,-32.069354768418364,-33.43981178497908
-4.108524288333333,-49.30229146,5.508181475033449,-0.5662920252777776,0.0,0.0964999999999998,88,12,180.13919823632102,597.5405400000001,mp-30037,AgIO4,https://materialsproject.org/materials/mp-30037,-22.19157879642164,-66.92024732691425,-20.873789829761225,-69.24534291220799
-3.8486988434,-192.43494217,3.3845880921236784,-0.8173906202964286,2.385e-05,1.0869000000000002,105,50,1175.1154251512794,2395.175048,mp-705516,Li10Sn(PSe6)2,https://materialsproject.org/materials/mp-705516,-10.1581009623426,-6.448047826679852,-31.5246177089218,-47.22438702175131
-5.698660302857142,-79.78124424,5.491626343985792,-1.892795308750001,2.0130287,0.0,122,14,315.01770636686194,1041.806,mp-34145,Ce2CdS4,https://materialsproject.org/materials/mp-34145,16.129342841039964,-5.6933446936068295,8.609008581099609,-7.764991308775627
-3.3675636941666665,-40.41076433,5.108966225096637,-0.32226207036458315,6.7025e-05,1.3869999999999998,62,12,425.94387899600434,1310.4978800000001,mp-22996,SbSeI,https://materialsproject.org/materials/mp-22996,19.49178462054599,-9.013227828110221,-15.662828373244507,-7.212265798297304
-3.9385494022727268,-86.64808685,3.798987300160528,-2.4287580544876803,0.0,0.8116,127,22,391.7168500281418,896.1712447999998,mp-17362,Rb3NiF7,https://materialsproject.org/materials/mp-17362,-29.43745495921484,-20.534512227063985,-2.0066203876785167,-7.3185131768514635
-6.513297519500001,-130.26595039,5.812709079800216,-2.4677955394375006,0.99384365,0.0,11,20,472.67423189207136,1654.59392,mp-1189290,Ce(HoS2)3,https://materialsproject.org/materials/mp-1189290,8.571212571462038,-3.0002457187602327,-5.038859071174373,-14.174612913344015
-2.8262477190625,-180.87985402,4.352961170127083,-0.15564175556250026,0.000113475,0.06009999999999983,63,64,1562.048104288721,4094.7756,mp-680682,K3Ga13,https://materialsproject.org/materials/mp-680682,16.499512914708838,22.13591504111733,14.568299717882832,-10.334174459418763
-6.624341392857143,-46.37038975,6.001438474633824,-2.5910203651371435,3.0725841,0.0,139,7,108.90238632365852,393.589645,mp-753330,Ba2MnO4,https://materialsproject.org/materials/mp-753330,14.988510435197925,-71.92044258455621,21.233222933306273,-72.02906896440473
-5.987595425,-83.82633595,5.270899903227491,-1.8832203687500009,3.0,0.1275000000000004,166,14,319.40890700522516,1013.871,mp-1247166,Lu3Mg2WS8,https://materialsproject.org/materials/mp-1247166,1.8206462197890847,25.11003736809472,-23.143802951030626,-79.54992382434078
-6.129510778125,-98.07217245,6.50552570137797,-1.1691693714062508,6.70279575,0.0,223,16,306.0372463502848,1198.9679999999996,mp-20961,EuPd3S4,https://materialsproject.org/materials/mp-20961,1.8476872313305301,-58.19528014715624,16.827005987512365,-44.606407460656264
-4.637435055357143,-129.84818155,5.030348994110015,-0.6491379570661903,0.0,1.8191,62,28,472.2407799680576,1430.5812,mp-556345,Ag2BrNO3,https://materialsproject.org/materials/mp-556345,-3.145665659330821,7.87778188061178,12.16398672055666,5.050879426581981
-4.762530825,-19.0501233,4.6109038833621865,0.5366014650000004,4.00000005,0.0,186,4,128.09643564997788,355.69194,mp-1187728,VI,https://materialsproject.org/materials/mp-1187728,14.43401770315663,12.281409055006685,-15.056558273958313,-10.495040780989877
-7.9567261511363645,-350.09595065,6.327400002918759,-3.2960630817045464,1.000000025,0.04789999999999983,19,44,662.0308340294732,2522.635,mp-30215,Pr3MoO7,https://materialsproject.org/materials/mp-30215,-11.532474236187015,-62.355699553649075,-5.870204437141872,-63.820809219523504
-7.02398917,-84.28787004,5.429195074359665,-2.3382164403472223,0.0,2.6061,82,12,173.31161575878025,566.64887,mp-1223057,LaAg(MoO4)2,https://materialsproject.org/materials/mp-1223057,-22.17601212031997,-66.93504801587005,-7.601046313576355,-84.22718860510554
-5.604794297670455,-986.44379639,7.233348004067173,-1.63513734596591,0.0,2.5594,60,176,2883.938527123145,12562.5056,mp-667426,Bi2Te2O7,https://materialsproject.org/materials/mp-667426,-25.124628623468624,-61.82605130532405,-15.713341349436453,-63.61136508287575
-8.220222523359375,-1052.18848299,5.145522495042715,-3.5862001983072918,2.5e-08,4.751099999999999,61,128,1677.342538894957,5197.5916,mp-1196034,Pr3Si2BO10,https://materialsproject.org/materials/mp-1196034,-19.63082660554059,-35.65619953172103,-17.06909598424716,-32.74704083291604
-5.665355218571428,-79.31497306,5.8719843958295685,-2.177017269464286,3.5e-07,2.3789,122,14,277.37942934899917,980.86684,mp-34116,Tm2MgS4,https://materialsproject.org/materials/mp-34116,19.22409970376179,-3.3635273241061903,7.419181750329452,-9.141462750387227
-8.052694440454546,-177.15927769,6.4440107091972765,-3.1771762535227293,3.0,0.0,63,22,324.5736214900702,1259.56442,mp-3222,La3RuO7,https://materialsproject.org/materials/mp-3222,-11.664313232573745,-62.74802703467843,-5.1999183981750345,-63.937868930971355
-5.995876935625,-95.93403097,3.679367606083496,-1.99561830615625,0.0,0.9975,63,16,368.9160458718451,817.432,mp-11602,KY2CuS4,https://materialsproject.org/materials/mp-11602,-19.77932366691136,12.242432548175554,-12.124919240182553,-5.211044143680269
-6.34559717875,-50.76477743,6.518475242994889,-0.17348474708333314,10.240005400000001,0.0,12,8,181.95187769586215,714.2552999999998,mp-1216975,TiCr3Te4,https://materialsproject.org/materials/mp-1216975,22.15267857461048,8.503171796754412,56.515965728124435,-23.66344814484071
-2.7730996325,-44.36959412,4.4188020289856365,-0.7890004145000002,5.5e-07,0.0,63,16,682.2854833567687,1815.6059,mp-1224094,K2PtI5,https://materialsproject.org/materials/mp-1224094,-1.6595359611414129,5.10471455809517,-34.94410532243658,-30.895150437465094
-3.1976437325,-38.37172479,6.667264482502879,-0.16599460583333325,0.0,1.2280000000000002,14,12,447.20244928430026,1795.57176,mp-28319,PtI2,https://materialsproject.org/materials/mp-28319,-4.772063459646131,3.173152961079994,-37.75101848367883,-35.65159668074017
-4.276595117355769,-889.53178441,2.640879939888892,-0.2776030649173556,0.0053890875,1.1803,14,208,3976.1627584345056,6323.5902399999995,mp-1204113,H12C4Se3Br6N,https://materialsproject.org/materials/mp-1204113,-8.104919891044933,0.7036810329841274,-35.450205019535325,-42.5931056845463
-4.552693403636363,-200.31850976,2.494958266585366,-0.8976271433163638,0.0,4.1225,62,44,580.829773045225,872.69616,mp-697170,MgH6(BrN)2,https://materialsproject.org/materials/mp-697170,-28.686670704661537,-7.925004101796304,-9.067873895750877,-23.130707533093442
-4.151525728999999,-41.51525729,3.1657439061963304,-0.8079688668660715,0.0,1.7629,12,10,251.33526891813972,479.15952400000003,mp-5328,CdPS3,https://materialsproject.org/materials/mp-5328,-8.766447570535808,6.026081399086039,-0.7068864592863637,-21.415167584300534
-5.625546266875,-90.00874027,2.810483467166246,-2.305237466566854,0.0,3.666,5,16,286.75908737737217,485.3434064,mp-1223949,K2RbCO3F,https://materialsproject.org/materials/mp-1223949,-16.26262561508022,30.12225121978575,-6.2135653582620884,3.177801545523056
-7.371521882692307,-191.65956895,3.5406608677229894,-3.079548229634285,4.9999997,3.9067,2,26,349.4723807295996,745.157538,mvc-3008,SrCaMn(PO4)2,https://materialsproject.org/materials/mvc-3008,-24.861822137229492,-33.92258902478893,-0.8368012647550659,-27.14729212950166
-3.6584168016666663,-175.60400648,4.57059421792952,-0.5889328725746529,3.6875e-06,1.2816,103,48,1460.6672975380347,4020.452,mp-1223690,KAgSnSe3,https://materialsproject.org/materials/mp-1223690,-5.528294630347302,-0.32399336159228365,-38.85671915324954,-38.877350052055604
-8.217415924400001,-410.87079622,4.580969110432748,-3.0696924413833324,2.00000025,0.15829999999999966,13,50,439.8489826980161,1213.422,mp-1019592,Ce2B8O15,https://materialsproject.org/materials/mp-1019592,-18.439892193257094,-29.778118097721855,-3.015134581545683,-18.623290297088325
-2.1307797475,-8.52311899,4.351014852774881,1.4357923359913791,1.8766397000000001,0.0,139,4,170.45499093043622,446.6334,mp-974846,Rb3Os,https://materialsproject.org/materials/mp-974846,-1.9225923535598382,-37.44872972263726,-32.41333147843709,-62.25054804115234
-4.584854893,-45.84854893,7.675977445238748,-1.6710612079880005,0.0,2.2374000000000005,67,10,249.34216660131958,1152.6045464,mp-1206410,Pb2IOF,https://materialsproject.org/materials/mp-1206410,-21.260392390689265,-55.62401789860692,-16.2665922307384,-57.39011129132288
-5.768050256666666,-51.91245231,3.8830146424574954,-1.6391446283200002,3.0,0.2114,189,9,164.49542182486783,384.6571,mp-1078941,Ba2NO6,https://materialsproject.org/materials/mp-1078941,10.717553792623818,5.4043372763376425,-5.977977948702269,-19.93114444937009
-9.024470582000001,-45.12235291,8.998777495414181,-2.5427726886545714,3e-07,1.3509000000000002,156,5,96.88826696080099,525.0559820000002,mp-1217271,Th2PNO,https://materialsproject.org/materials/mp-1217271,4.01216288671951,-5.970212531413231,-13.823825401920553,-66.18308469309574
-7.677568208333334,-46.06540925,7.047833989179027,-4.223130064146667,0.0,4.6930000000000005,166,6,87.34424478635894,370.71560639999996,mp-9488,SmOF,https://materialsproject.org/materials/mp-9488,-19.19193415547061,-68.57869402968393,-7.996270803564094,-68.78936614162201
-6.862855022678572,-384.31988127,3.7389449844588434,-2.6471130942389456,0.0,3.1968,19,56,856.4600797790738,1928.4443440000002,mp-10070,BaAg(PO3)3,https://materialsproject.org/materials/mp-10070,-28.48151770332355,-24.014766492546663,-32.580379537283484,-28.16311945912395
-3.718285148888889,-200.78739804,5.3498537302497375,-0.0957913437777778,6.8e-06,0.0,223,54,1372.5200331531094,4421.9264,mp-1212086,K4Hg3Ge20,https://materialsproject.org/materials/mp-1212086,15.116703449898065,21.224424151026746,15.498734202417955,-46.63154433888525
-5.641757714210527,-857.54717256,3.462336046264073,-3.8936988353800004,0.0003126,6.9159000000000015,86,152,2011.091660918632,4193.261936159999,mp-667386,Na3Sr4Al5F26,https://materialsproject.org/materials/mp-667386,-14.97979034764835,-25.837868051168154,-15.200983535773391,-16.606327176487017
-5.1224379125,-327.8360264,5.178183357046364,-1.6068501854687494,0.0,0.7649999999999999,14,64,1972.5455358342208,6151.1366,mp-30229,Tb5C2Br9,https://materialsproject.org/materials/mp-30229,19.04789089328696,-0.049342014240112184,13.28631361002168,2.1719855022933743
-4.910016720714286,-68.74023409,6.035147823323039,-0.7337654072544642,0.0,0.8542000000000005,148,14,284.182588137478,1032.8477,mp-1216202,Y(CuSe)3,https://materialsproject.org/materials/mp-1216202,32.87891514444764,-3.5958544826028294,53.89032357184647,-4.405700675267336
-4.3623901975,-34.89912158,4.70604322824128,-1.1045950530729174,2e-07,0.6100000000000003,121,8,195.46736139415108,553.9634,mp-7394,BaAg2GeS4,https://materialsproject.org/materials/mp-7394,3.8829103559070917,-4.864125804064246,-14.515709327201725,-68.11208675052286
-4.702803793095238,-197.51775931,4.869174141623391,-0.9093773426190476,0.9995325999999999,0.07139999999999969,64,42,1625.3123882059626,4765.8795500000015,mp-1207507,Zr6CoI14,https://materialsproject.org/materials/mp-1207507,10.264986445356287,7.992739137732696,-6.041175024837427,-5.322609636639309