energy_per_atom,energy,density,formation_energy_per_atom,total_magnetization,band_gap,sgr,num_sites,cell_volume,weight,mp_id,formula,URL,tsne_cry_0,tsne_cry_1,tsne_xrd_0,tsne_xrd_1
-4.77616434625,-38.20931477,9.074295458413218,-0.4914741437500005,0.0,0.0,139,8,125.7404716194598,687.13,mp-12742,MgPd3,https://materialsproject.org/materials/mp-12742,58.356404596427204,54.42708705135457,79.73912816814324,14.943355803916294
-5.9712925375,-23.88517015,9.561027116368836,-0.77719527,3.26e-05,0.0,225,4,69.30619948674098,399.05021,mp-865230,TmMgRh2,https://materialsproject.org/materials/mp-865230,88.27526454314581,0.9721708134282524,65.3815711709203,48.59294237681464
-4.76763296,-19.07053184,9.07719297440894,-0.4829427575000009,0.0,0.0,221,4,62.850167104081876,343.565,mp-7753,MgPd3,https://materialsproject.org/materials/mp-7753,58.354444265996676,54.431544308088974,79.85308450615445,14.957713506387599
-8.341455015,-83.41455015,6.887231785319997,-0.34111513995199944,5.557823,0.0,59,10,94.7938369481952,393.16578,mp-1246609,Mn2NiN2,https://materialsproject.org/materials/mp-1246609,30.30274459409568,57.75582231555415,84.9368597160788,18.82901853359771
-4.798285556222222,-215.92285003,4.451242645292086,-1.1025068097222228,4.0000001,0.6459000000000001,1,45,442.53366722783767,1186.2562,mp-759215,Li6Mg(Ni6O13)2,https://materialsproject.org/materials/mp-759215,5.314694944704419,76.95965936502397,18.421969996396,92.10240216203913
-4.762338206,-23.81169103,6.147635860662294,-0.6121967674999993,1e-07,0.0,139,5,60.13646652468515,222.6368,mp-1022728,Cu3O2,https://materialsproject.org/materials/mp-1022728,26.86571668645929,56.19823871924422,74.96169263934911,15.336059868424122
-8.68303345,-43.41516725,10.112865896115236,-0.3856236764759998,9.648462599999998,0.0,221,5,61.39541274850338,373.90483500000005,mp-7070,Mn3PtN,https://materialsproject.org/materials/mp-7070,55.465277711667134,57.76362232591232,80.68912995341914,12.042534811225751
-4.908845465714286,-68.72383652,4.187941950475598,-1.332104663571429,0.0,0.8165,12,14,135.7086807422326,342.2624,mp-756920,Li2MgNi3O8,https://materialsproject.org/materials/mp-756920,4.180258795523403,77.12372538286573,18.014758864090226,92.47646763302929
-6.3465283415,-126.93056683,4.25710818737417,-1.712722944394001,9.9999996,1.0692000000000002,2,20,213.55484084433832,547.48852,mp-754774,Li2Mn3(CoO4)3,https://materialsproject.org/materials/mp-754774,5.529858575548487,77.05362859390375,20.738050755130207,89.62716841777136
-5.715236803846153,-74.29807845,4.509065383791409,-1.356523608461539,2.9999618999999997,0.0,166,13,136.5050758455475,370.66898,mp-780322,Li(CoO2)4,https://materialsproject.org/materials/mp-780322,5.264015094921215,76.76182959541683,20.532971977551053,89.68179607008625
-4.837034706666667,-29.02220824,5.887308006071872,-0.6741809760416668,1.8000000000000001e-06,0.0,123,6,67.30830560394675,238.6362,mp-1147768,CuO,https://materialsproject.org/materials/mp-1147768,27.022776957347713,56.41417299589065,57.754656980891596,33.64371111364585
-4.858542402666667,-72.87813604,4.629835969718492,-1.226722323333334,3.9136476000000004,0.0,2,15,139.3196422698741,388.4444,mp-861850,Li3CuNi3O8,https://materialsproject.org/materials/mp-861850,9.456935648580664,78.99695712538191,23.25063476090604,86.11955086950651
-5.534380591875,-177.10017894,4.359195850337756,-1.7391819265625,15.999999800000003,0.8632999999999997,1,32,278.4551108450325,730.991765,mp-1175376,Li9Co7O16,https://materialsproject.org/materials/mp-1175376,8.904428911524338,85.03586126602681,10.797381268652613,94.8909077232075
-5.93348932,-23.73395728,9.005212712600374,-0.7020704474999997,1.8100000000000003e-05,0.0,225,4,71.73826654259648,389.04135,mp-977396,TbMgRh2,https://materialsproject.org/materials/mp-977396,88.45200302705206,0.3830861893695444,66.13069684816573,47.99222192093495
-6.0209608053846155,-78.27249047,4.43326733591209,-1.4897549354584607,4.9999937999999995,0.0,166,13,137.34254298834304,366.67383,mp-756037,LiMnCo3O8,https://materialsproject.org/materials/mp-756037,5.141489740509426,76.86195097567105,20.581564019838353,89.67955573985661
-10.339533808333334,-62.03720285,14.756957613103122,-0.14136911327333246,0.00023319999999999998,0.0,221,6,67.58764385776473,600.6410999999998,mp-1019052,ReN,https://materialsproject.org/materials/mp-1019052,50.65766974057208,19.28622429937016,58.297919611109215,34.34215563107584
-6.1420047425,-171.97613279,4.745235199513908,-1.7180867893885718,10.0,0.1987000000000001,8,28,260.0861428020884,743.23451,mp-754275,Li4Mn3Co5O16,https://materialsproject.org/materials/mp-754275,-1.1066717448326038,72.12551039468721,2.842622926466182,58.53238372364368
-5.935350373333333,-17.80605112,2.8597421643193432,-1.2087966225000006,2.0000001,0.8703000000000001,166,3,51.00741638247325,87.8438,mvc-14925,FeO2,https://materialsproject.org/materials/mvc-14925,5.7584086565918815,71.50937666893374,14.418592689521267,84.87511829642881
-9.12810713,-54.76864278,15.148608680821846,0.4564744263100001,9.926666666666666e-05,0.0,221,6,67.16320044231982,612.7100999999999,mp-1018849,OsN,https://materialsproject.org/materials/mp-1018849,50.64412469975754,19.303199646308514,58.31725513753952,34.32183023327479
-5.496964343333333,-131.92714424,4.28573654268667,-1.7364325706249997,13.999999800000003,0.5147999999999997,10,24,207.3847742459179,535.245775,mp-1174391,Li7Co5O12,https://materialsproject.org/materials/mp-1174391,8.46226376733513,85.17017705772574,11.564719277655096,94.73196828130371
-7.815327925,-31.261311699999997,9.637730800689363,-0.4573313025000001,4.84e-05,0.0,225,4,71.39154662242169,414.354912,mp-1184223,ErScRu2,https://materialsproject.org/materials/mp-1184223,88.5484469817996,0.5078280625054004,66.00589493384604,48.16693255673088
-2.88329884,-11.53319536,9.986093512124476,-0.4347312749999999,0.0006034,0.0,225,4,70.97831667070862,426.847,mp-867206,LiCd2Pt,https://materialsproject.org/materials/mp-867206,87.60700343031903,0.5549060971508432,65.73323114219563,47.68478960412993
-5.674135653181818,-249.66196874,4.25926221764651,-1.3144121978409102,13.0,0.9288,1,44,488.2291379506276,1252.301735,mp-760219,Li2MgCo13O28,https://materialsproject.org/materials/mp-760219,4.6906034414483475,76.81696446930013,18.61037530245893,92.16273775305635
-6.78810538,-13.57621076,3.9846065029484916,0.5372899931249995,6.1e-06,0.0,225,2,16.709631278867754,40.0962,mp-1002206,SiC,https://materialsproject.org/materials/mp-1002206,29.177452657274326,57.79079630576255,57.59949398895072,42.0877163995844
-9.2220976675,-110.66517201,5.51690236779597,-0.6795775970233334,5.0650981,0.0,63,12,122.10471767437812,405.67537999999996,mp-1245505,Mn2VN3,https://materialsproject.org/materials/mp-1245505,25.570302205451174,54.83749223034507,11.143097324182813,46.566506582962425
-6.202480805,-24.80992322,9.954599169442735,-0.7237691374999997,1.9e-06,0.0,225,4,69.33259010659258,415.635,mp-865049,HfMgPd2,https://materialsproject.org/materials/mp-865049,88.26790256548388,1.0077858713200114,65.38022910159538,48.58396464940341
-4.95478968,-19.81915872,9.328157000334617,-0.7572583375000006,2.3e-06,0.0,225,4,70.27052234845601,394.7480000000001,mp-977374,LiLuPd2,https://materialsproject.org/materials/mp-977374,87.85073829170273,0.7298945121771011,65.63884328471323,48.0098679614336
-6.685002565555554,-60.16502309,4.2288375246787995,-1.8263795454629632,2.0000001,1.0959999999999999,12,9,102.77352385606544,261.72979,mp-753158,Ti(CoO3)2,https://materialsproject.org/materials/mp-753158,4.885046287999779,72.61379626296876,17.467370932823002,86.0358844969584
-5.7916125675,-185.33160216,4.310444492474878,-1.856263604122499,14.0000001,0.0,2,32,278.526300641532,723.001465,mp-1175694,Li9Mn2Co5O16,https://materialsproject.org/materials/mp-1175694,9.308585255950312,84.87713769186881,10.696730969883617,93.43111582057014
-9.13583999,-164.44511982,6.4035084166822624,-0.5218298643911099,7.23524785,0.0,2,18,169.44839513106533,653.44096,mp-1245928,Mn4VN4,https://materialsproject.org/materials/mp-1245928,29.586961029634182,58.246214257806514,83.04924907501791,22.444140205442423
-10.0527817175,-120.63338061,14.535677749695456,0.2208544891666667,0.000108425,0.0,193,12,192.30005534610697,1683.31582,mp-1102370,Ta2Co,https://materialsproject.org/materials/mp-1102370,62.51398708169825,58.12871484959013,77.368100921931,14.629172522333715
-7.100427483333332,-340.8205192,4.1459703129167,-1.7869904705083322,46.9999975,0.8655,12,48,555.9391442056226,1388.047575,mp-771190,Mn15CrO32,https://materialsproject.org/materials/mp-771190,6.18197096385236,71.14199625524543,16.11935472703416,84.29234735894876
-5.65589652125,-135.74151651,5.17621807010739,-1.0929549470833326,0.9992087375,0.0,186,24,233.3690360606497,727.45596,mp-755508,CoO2,https://materialsproject.org/materials/mp-755508,1.243537837112876,72.25302712909864,2.343080404957919,57.51653942032724
-5.431762764,-81.47644146,4.500570570927931,-1.5079308320000004,8.0000002,0.0,12,15,141.79618253815875,384.311185,mp-777820,Li3Co3NiO8,https://materialsproject.org/materials/mp-777820,11.978717628581824,80.78573603363296,22.359158255206665,84.48905357833705
-5.75414513,-103.57461234,4.832870991692077,-1.252795118055556,2.0000049,0.0,12,18,209.04823039829375,608.418775,mp-753116,Co5SbO12,https://materialsproject.org/materials/mp-753116,4.902207812762537,71.86445290475794,18.83433154033109,83.56658580534018
-2.424080763333333,-14.54448458,6.076764837843831,-0.09216453927777776,1.365e-05,0.0,227,6,130.46880520712898,477.45233856,mp-30352,NaAg2,https://materialsproject.org/materials/mp-30352,86.1507793612823,-0.485891896782439,66.77074889215783,46.165863512306174
-5.626351315,-202.54864734,4.672473053876777,-1.0634097408333336,1.3333339750000002,0.4857,156,36,387.7932545138231,1091.1839400000001,mvc-13203,CoO2,https://materialsproject.org/materials/mvc-13203,3.7734714949144066,76.05238611457564,3.7009145842185296,57.79042218245731
-5.76240479,-195.92176286,4.490486356177666,-1.4973761325,4.9999995,0.010000000000000007,1,34,345.3827250222274,933.995755,mp-759547,Li4FeCo9O20,https://materialsproject.org/materials/mp-759547,5.50570987280375,77.06005822500377,20.6805764754122,89.56569581754867
-4.917416411666667,-29.50449847,9.830898052213762,-0.3349089600000005,2.7000000000000004e-06,0.0,189,6,93.98248457506331,556.405,mp-977059,MgPd5,https://materialsproject.org/materials/mp-977059,58.7117714197193,54.61604502783659,81.2499111761758,14.826619930880414
-6.6598512662500005,-159.83643039,3.573429771418088,-2.613391216458333,6.0000005,1.6265999999999998,12,24,208.91339268532886,449.5753,mp-1176994,Li7V3(SiO6)2,https://materialsproject.org/materials/mp-1176994,5.53255704205085,83.52106550180125,13.372107001662364,95.43322889965789
-8.04245337125,-64.33962697,6.569879843417282,-0.3518518224399996,0.8797168,0.0,194,8,69.58129566666247,275.2966,mp-1245731,VNiN2,https://materialsproject.org/materials/mp-1245731,29.82547002706037,58.48267942709234,85.02839237168368,19.357694205203973
-5.978364356428571,-83.69710099,4.468503187790675,-1.6345322879257134,8.0000006,0.0,166,14,138.8388874451499,373.61483,mp-753177,Li2MnCo3O8,https://materialsproject.org/materials/mp-753177,1.7385278621726818,68.77566723062654,17.149944475174824,84.10238872555912
-5.6899080741666666,-204.83669067,4.466218956288071,-1.5558269726388885,23.0,0.5017999999999998,2,36,352.4207014322502,947.8777550000001,mp-759050,Li6FeCo9O20,https://materialsproject.org/materials/mp-759050,9.975874945050434,77.03876672796908,21.97499985163629,84.6409759152388
-4.6833547125,-18.73341885,10.026852934622703,1.4731704047916674,0.0166821,0.0,225,4,70.65782536071661,426.654,mp-631547,In2ReB,https://materialsproject.org/materials/mp-631547,87.7917546489283,0.5562454761957892,65.7314548520728,47.919153663371226
-5.153100226666667,-77.2965034,4.4596919610605585,-1.4127775740000004,7.0000000999999985,0.0,12,15,141.76747753940907,380.7434,mp-753275,Li3FeNi3O8,https://materialsproject.org/materials/mp-753275,11.984424075843489,80.77250648173701,22.42255516963997,84.24333501449951
-5.841914321785715,-163.57360101,4.249393295725339,-1.901401126943572,6.000000099999999,0.5804999999999998,5,28,244.28198502941385,625.12847,mp-1174786,Li4MnCo2O7,https://materialsproject.org/materials/mp-1174786,9.513808064864909,84.95493847463464,10.469972793697142,93.76162149523891
-6.072832485833334,-145.74797966,4.878128515624705,-1.310915118333334,0.99999975,0.4762999999999997,186,24,242.90675891829295,713.58177,mp-867636,CrCo3O8,https://materialsproject.org/materials/mp-867636,0.7956381390407223,72.29457453321974,2.5061806198807477,57.873911268949655
-7.216368449230768,-93.81278984,3.423949753387452,-3.1739194161538453,0.9999998,0.0,216,13,127.50202222551184,262.902893,mp-1228138,Al5O8,https://materialsproject.org/materials/mp-1228138,4.12814073641595,61.975255111541955,3.9301186807408737,57.56063299840525
-5.7856032959375,-185.13930547,4.286159872440451,-1.85025433256,16.0000002,0.0,2,32,280.1043811569522,723.001465,mp-1175681,Li9Mn2Co5O16,https://materialsproject.org/materials/mp-1175681,10.220336330851637,85.42637501329978,10.487359765539061,94.74826186437878
-9.012294724,-45.06147362,6.485063213271055,-0.33575629295200005,8.2818418,0.0,139,5,49.37463819924111,192.827535,mp-12857,Mn3N2,https://materialsproject.org/materials/mp-12857,30.068228153541952,58.44915663339044,84.48811715695591,19.34950599358342
-5.6348709066666665,-33.80922544,17.549241971483408,-0.3201243299999999,0.0001946,0.0,189,6,94.59567509876189,999.725,mp-1185952,MgPt5,https://materialsproject.org/materials/mp-1185952,61.73211060355751,58.184800958409795,81.14910383057237,14.29995579271442
-5.701904920357142,-319.30667554,4.426362326645032,-1.6756789472619056,1.999999425,0.6658,19,56,548.9525286512236,1463.2976,mp-775328,Li2TiNi3O8,https://materialsproject.org/materials/mp-775328,1.9785096366273949,68.93346545743287,18.285692701341347,84.58267743421018
-7.806537819000001,-78.06537819,7.241382188014468,0.05029864404800009,2.62286475,0.0,59,10,92.1000566708694,401.63567,mp-1245606,Mn(CoN)2,https://materialsproject.org/materials/mp-1245606,30.35707412364853,57.36956668307394,85.04634285235315,18.075560285679348
-4.223506901666666,-25.34104141,3.885407351374208,-0.20114461416666649,2.0,0.0,194,6,77.5197682529858,181.3844,mvc-6929,NiO2,https://materialsproject.org/materials/mvc-6929,5.611974008792778,71.29090940705153,16.974048588937315,88.4659348053128
-4.4678178075,-17.87127123,7.042758418698714,-0.2945302793750004,1.59e-05,0.0,225,4,70.51545107066269,299.07353860000006,mp-862838,PmAlCu2,https://materialsproject.org/materials/mp-862838,87.87808716988957,0.455064290655076,65.82744945890718,47.927837925437046
-4.783587753137256,-243.96297541,4.241723147921422,-1.2347226857843143,0.0,0.8969,1,51,460.73085051181823,1176.9026,mp-759703,Li12Ni11O28,https://materialsproject.org/materials/mp-759703,4.142698165862197,77.11327492819831,16.98451288951666,92.95582713350485
-8.138224325,-16.27644865,6.830444127584717,0.06792720381000095,2.4138306000000003,0.0,225,2,16.981542150668787,69.8517,mp-1008929,FeN,https://materialsproject.org/materials/mp-1008929,29.708291283856244,58.66417059007221,57.429281024643046,42.44687409958944
-5.53186111875,-177.0195558,4.375028258454348,-1.7366624534375,15.9999995,0.5023999999999997,2,32,277.4474339349393,730.991765,mp-1175410,Li9Co7O16,https://materialsproject.org/materials/mp-1175410,8.671192439848635,85.1863527405412,10.80427736471832,94.82898098450346
-8.61172804,-17.22345608,15.475568981756306,-0.1521420599999992,0.0002242,0.0,187,2,31.227072435698947,291.024,mp-1221433,MoPt,https://materialsproject.org/materials/mp-1221433,62.48808099484539,59.75259898290516,83.88527921465595,14.420623957919641
-9.816511215,-19.63302243,10.746612426616393,0.05978103166666671,0.0011598,0.0,65,2,35.355889473772116,228.81488,mp-1217887,TaTi,https://materialsproject.org/materials/mp-1217887,88.14645551091934,0.8049123102141071,65.96835156664079,48.026717775473024
-7.311968465,-146.23936930000002,6.714510866154377,0.01217285404800066,0.025169475,0.0,62,20,198.17942581906368,801.3529799999999,mp-1245849,Mn(NiN)2,https://materialsproject.org/materials/mp-1245849,30.050463505511654,57.25566707109493,75.95044653291316,9.00834805884445
-5.563561314848485,-183.59752339,4.416482231833887,-1.5415290723484842,2.0000001,0.0,12,33,316.1242155348328,840.7854,mp-758197,Li2Fe2NiO6,https://materialsproject.org/materials/mp-758197,9.940478270622787,77.02963376865755,22.33038479176659,84.87128608629841
-7.409133670999999,-148.18267342,3.6643108377376667,-3.3740432842500003,7.5e-08,5.4924,163,20,184.82130895139198,407.8451088,mp-755175,Al2O3,https://materialsproject.org/materials/mp-755175,6.736638625122602,61.59375584290326,8.113451904515026,50.440361993647315
-4.918170051666666,-29.50902031,9.856102700969947,-0.3356626000000003,2.8999999999999998e-06,0.0,155,6,93.74214662559014,556.405,mp-976976,MgPd5,https://materialsproject.org/materials/mp-976976,58.71307588205102,54.63886421047136,80.95210760943462,14.838687472970506
-7.177328635,-28.70931454,16.237083926299892,-1.05157269625,4e-07,0.0,221,4,64.45029451980899,630.207912,mp-481,ScPt3,https://materialsproject.org/materials/mp-481,63.14256559561709,56.09276709972602,80.32287669623022,15.433899013960286
-4.102641946666666,-12.30792584,4.855755563002824,-1.0155680116466663,0.9999995,0.0,123,3,32.03989546005127,93.6912032,mp-1147690,NiOF,https://materialsproject.org/materials/mp-1147690,-10.561631356264405,72.80429780931041,-3.9426564172018304,57.13083289388555
-5.8239881408333325,-139.77571538,4.157650523317696,-1.1996920004166671,16.9946082,0.13949999999999996,10,24,286.84104392379965,718.191375,mp-756418,Fe3Co5O16,https://materialsproject.org/materials/mp-756418,5.003228487413316,72.31373385423537,21.017212924407147,83.95958154818729
-6.277147672999999,-188.31443019,4.759296291038447,-2.067791016111111,0.0,0.6400000000000001,186,30,260.62091049312914,746.96957,mp-761172,Li3TiCo3O8,https://materialsproject.org/materials/mp-761172,1.5965948929114806,73.46796483308918,2.9085700962711174,58.45751510366114
-7.901203709000001,-79.01203709,6.77155693621345,-0.23665667595199974,5.79322435,0.0,59,10,98.793083581033,402.87098,mp-1247503,Mn2CuN2,https://materialsproject.org/materials/mp-1247503,30.11093287767473,58.31906494968296,84.49456621236016,19.449291775857642
-5.640116278333332,-33.84069767,17.605401222488226,-0.32536970166666634,0.0,0.0,8,6,94.29392552800766,999.725,mp-977056,MgPt5,https://materialsproject.org/materials/mp-977056,61.93561296927447,58.3403943469421,77.89017386487272,14.520654157144037
-4.506639143611111,-162.23900917,4.748722452650926,-0.4842768561111118,0.3333136083333333,0.0,156,36,380.5603049453897,1088.3064,mvc-5627,NiO2,https://materialsproject.org/materials/mvc-5627,3.7099492582609694,75.97135131607787,3.684702077452153,57.77297409652364
-5.1048521025,-102.09704205,4.593220554639703,-1.5054585048750002,0.9899873,0.0,166,20,175.45180163078817,485.3176,mp-753971,Li5Fe(Ni2O5)2,https://materialsproject.org/materials/mp-753971,12.004700919231539,81.0442087431472,23.8672478632072,84.09357275011128
-4.63588657826087,-106.62539129999999,4.191323383826571,-0.8469121831086963,2.0000001,0.5109999999999999,2,23,269.73256090116587,680.82493856,mp-761163,Na2(NiO2)7,https://materialsproject.org/materials/mp-761163,6.6559528186269015,74.62914350167992,18.50973132756892,91.28712653880189
-7.801043335,-31.20417334,9.507810915618462,-0.4403840650000008,0.0005407999999999999,0.0,225,4,71.96037550727756,412.026232,mp-974063,HoScRu2,https://materialsproject.org/materials/mp-974063,88.58664250218264,0.4126604874948668,66.13462741876377,48.091810222990425
-7.27289426,-14.54578852,4.0410429672564705,-1.4226065761899995,2.3e-06,4.448799999999999,225,2,16.842822738493112,40.9882386,mp-1330,AlN,https://materialsproject.org/materials/mp-1330,29.182051914556823,57.80071325900185,57.618308452709705,42.214758267392966