energy_per_atom,energy,density,formation_energy_per_atom,total_magnetization,band_gap,sgr,num_sites,cell_volume,weight,mp_id,formula,URL,tsne_cry_0,tsne_cry_1,tsne_xrd_0,tsne_xrd_1
-6.058750128214285,-169.64500359,3.860525537999487,-1.0772396229166663,2.998309075,0.03469999999999995,1,28,652.680735518777,1517.3932,mp-1246709,ZrCrAgS4,https://materialsproject.org/materials/mp-1246709,-2.1971717679423386,9.24950144698055,-14.20536313635042,-70.8112391685667
-5.4354712375,-43.4837699,6.794907912029294,-1.8375502853125003,1.885e-05,0.8324999999999996,129,8,169.80025029646904,694.8208,mp-12516,NdZnSbO,https://materialsproject.org/materials/mp-12516,19.34483545946987,-38.47493033550564,20.0660998876676,-40.66776638021789
-2.25046324625,-36.00741194,5.799312457644442,-0.3766429137499998,0.0,1.0028,51,16,535.818229436116,1871.3064,mp-569454,CdHgAsBr,https://materialsproject.org/materials/mp-569454,-4.043118462290694,1.556802529389096,-28.36166864760117,-36.41748756610149
-2.506662435,-50.1332487,4.905979793948675,-0.7959350286666667,1e-07,2.2227,62,20,632.1866721367517,1867.764,mp-505222,CdInBr3,https://materialsproject.org/materials/mp-505222,8.078891691869456,-0.6643855196766296,-1.2994478629148234,-17.909710350146632
-6.6707176397014925,-446.93808186,2.5891230168087898,-3.1156934333492536,12.0,0.0029000000000000137,2,67,985.0092204136844,1535.832632,mp-1182805,Ca13Si10(O17F5)2,https://materialsproject.org/materials/mp-1182805,-20.81968442592368,24.507152462923926,-13.303805311039136,16.558853280520278
-3.957437568000001,-39.57437568,3.681391779237436,-0.7222810491041678,0.23544935,0.0,156,10,253.25915625856211,561.472,mp-1224507,InGaS3,https://materialsproject.org/materials/mp-1224507,-1.7766578537807278,9.341683783614194,-14.279977228876882,-71.08367764012186
-4.941527056666667,-29.64916234,3.9613666505620038,-0.1425504559999998,4.427830200000001,0.0,129,6,180.9164801803796,431.59269000000006,mp-4233,KMnSb,https://materialsproject.org/materials/mp-4233,11.689746051321881,1.0996749746835486,7.146590971427761,0.9477146870080699
-6.13202614875,-98.11241838,3.780742305954972,-0.9552862852975004,2.00000015,0.0,12,16,223.3338747333985,508.4902,mp-1220242,NdNO6,https://materialsproject.org/materials/mp-1220242,-34.00301370615173,-25.51405594236948,-19.277799291265733,-33.101674502513546
-3.897194889285714,-109.12145690000001,3.976184911589393,-1.2814298249014775,5.9998582,1.3066,194,28,1020.5363335279532,2443.6891114,mp-23451,Cs3Cr2Br9,https://materialsproject.org/materials/mp-23451,-8.316369132477803,-4.749075612577362,-28.609957120000157,-46.38103563823221
-4.1070114325,-65.71218292,4.249637467693165,-0.8303657724479172,0.0,1.7836000000000003,7,16,341.8977381565146,874.9818,mp-1189914,ZnSi(AgS2)2,https://materialsproject.org/materials/mp-1189914,-2.1653562569832823,9.288315349859412,-14.716767860918779,-70.24583917358282
-4.0673256208333335,-48.80790745,5.557297101132872,-1.3016305757480242,3.5000000000000004e-06,1.4529999999999998,63,12,423.8710436777062,1418.5618438,mp-11124,CsLaHgSe3,https://materialsproject.org/materials/mp-11124,10.132871000507894,0.5172653182254014,-3.4488662729338904,-20.01445444003733
-3.018761458636364,-66.41275209,3.3617525204323053,-1.0693924627272724,0.0001013,2.9106,7,22,795.8589062825044,1611.2121544000001,mp-1214910,Al2CdBr8,https://materialsproject.org/materials/mp-1214910,1.2610303143155035,-0.16076057404983068,-32.15968232499722,-32.321184093655475
-4.1653503971428565,-29.15745278,4.12397705481489,-0.35406481223214264,2.9799702,0.0,139,7,118.58504952607599,294.507995,mp-1147573,Ga2Co(SO)2,https://materialsproject.org/materials/mp-1147573,13.897513790670954,22.132139585266007,24.74658875335392,-41.08815620227524
-3.93536096,-31.48288768,5.658922159669758,-0.4641467436979171,8.25e-06,0.0,141,8,172.3992469437306,587.5164,mp-34371,AgSbS2,https://materialsproject.org/materials/mp-34371,22.91548389046313,9.671657442534443,32.42741917739451,-39.2467084172422
-4.8497826275,-58.19739153,5.08562203361866,-1.1744533928313572,3.99999165,0.0,63,12,390.3591799499423,1195.5269938,mp-1213115,CsYbMnSe3,https://materialsproject.org/materials/mp-1213115,10.252155627845617,0.6807128831949429,-3.0091348006302816,-19.900840575919265
-6.189010182142857,-86.64614255,3.141048556793823,-1.9400516166071424,4.0000002,0.0,166,14,331.3549381323514,626.7855950000002,mp-1247272,Y3Mg2MnS8,https://materialsproject.org/materials/mp-1247272,14.141075718057305,10.324055750661024,-23.70024687653284,-78.53939443148681
-6.947249238421053,-263.99547106,5.795470611830021,-3.846587354695132,0.0,2.648200000000001,6,38,645.0373333335767,2251.2538512,mp-1219884,Pr6S3(OF4)2,https://materialsproject.org/materials/mp-1219884,-12.309586116570204,-32.255288838070356,-25.31399892528511,-43.195123356730356
-3.628341532,-36.28341532,3.7673583950036873,-1.2275517115189658,3.0000001,1.3579,225,10,339.0797733607095,769.28936928,mp-1114445,Rb2NaMoBr6,https://materialsproject.org/materials/mp-1114445,-0.5176317503482566,14.24674798948234,-28.212919553121147,-70.41778876253228
-4.291117013,-42.91117013,3.431188899915796,-0.7581673801999997,5.000000099999999,0.8461000000000003,72,10,375.8725371388708,776.66929,mp-8719,K2MnTe2,https://materialsproject.org/materials/mp-8719,-3.4388970419483504,-7.769377549365523,-32.845756493890725,-27.084105149513807
-8.902174419166666,-106.82609303,5.734503750642501,-3.5779425079166662,9.35e-06,3.5826,15,12,171.31495992862253,591.6188999999998,mp-542724,LaNbO4,https://materialsproject.org/materials/mp-542724,-21.53445751245855,-66.64630909581905,-9.086339263641335,-66.25205783577435
-7.1200455125,-85.44054615,3.8380681962231895,-3.3359279059175013,0.0,2.5592999999999995,194,12,242.23061962990624,559.8770128,mp-3632,YSF,https://materialsproject.org/materials/mp-3632,12.019069407110731,13.576703616509544,-14.866760120780294,-70.85810563563122
-7.831841166538463,-407.25574066,2.8952412803441945,-3.2148177941025646,5e-08,5.6645,62,52,564.0572017098508,983.4648,mp-6419,CaSi2(BO4)2,https://materialsproject.org/materials/mp-6419,-54.57385532766919,17.029644863022686,-20.761304341845232,-11.71491032104132
-4.08717649375,-32.69741195,3.604985282909569,-0.9885302894062508,0.0,0.8504999999999998,12,8,192.42964080879074,417.75953856,mp-557179,NaSbS2,https://materialsproject.org/materials/mp-557179,12.393569150244167,7.417113419154003,-35.37364497535445,-32.111896420402154
-3.451356193125,-220.88679636,3.4748422179342366,-0.24171177689655154,2.25e-07,0.01869999999999994,186,64,1367.0556547228728,2860.6992,mp-29974,RbLi7Ge8,https://materialsproject.org/materials/mp-29974,18.7026932418348,21.549377387938186,-31.878641914554557,-35.37016898914084
-2.715593095555556,-48.88067572,3.4573663911830934,-1.033685045111111,3.355e-05,2.1407,128,18,658.2094164008242,1370.4412,mp-23411,K2TeBr6,https://materialsproject.org/materials/mp-23411,-0.05678202480066154,14.12366640579936,-24.12048867068612,-72.80037738964893
-4.514294456666667,-13.54288337,9.64539631941613,-0.4004080700000004,0.0,0.0,164,3,77.52031501102917,450.284,mp-399,Te2Pt,https://materialsproject.org/materials/mp-399,28.929681898908534,23.773305606288552,26.330926704028826,-44.057585184513705
-4.090533546944445,-147.25920769,5.8856542836390355,-0.052797645621481586,0.0,0.07180000000000053,62,36,981.9202455368857,3480.3416,mp-1247116,In4Te3N2,https://materialsproject.org/materials/mp-1247116,14.896849150023437,0.9196059924721509,-1.7741071722114956,-16.295629317135166
-6.568203496458334,-315.27376783,3.620807547165081,-2.683571121760417,0.0,5.658499999999999,14,48,688.7691353949713,1501.862,mp-14665,KNd(SO4)2,https://materialsproject.org/materials/mp-14665,-34.2846936025088,-25.227915071935648,-31.177019920792173,-32.98886557362535
-3.600468345625,-172.82248059,4.356104030777824,-0.7469755376440972,0.008375925,0.9771999999999998,15,48,1531.317105984338,4017.1152,mp-680403,K2In3AgSe6,https://materialsproject.org/materials/mp-680403,15.428651166512893,13.86495742538176,-11.137933442776568,-14.62294147656498
-7.243538318611112,-260.76737947,2.89581324726502,-2.968210410726295,0.0,5.3874,14,36,366.94646102366636,639.9177599999999,mp-554371,CaSiBHO5,https://materialsproject.org/materials/mp-554371,-54.052397272251824,16.874880553338553,-8.375835195978791,-20.840573434973084
-3.84856569,-53.87991966,3.304984177237892,-1.9859830213720693,4.0,0.6983000000000001,1,14,371.04167289765803,738.4872191999998,mp-698616,Rb3FeF3,https://materialsproject.org/materials/mp-698616,-3.9265777325796334,-27.445385266641804,-26.11180450523645,-57.729383993718926
-8.129106507777777,-73.16195857,5.0483222151023694,-0.165394429722222,0.0005186,0.0,12,9,144.3277455082321,438.78099000000003,mp-1223086,La2YC6,https://materialsproject.org/materials/mp-1223086,4.166399829428632,-56.94908792158089,-20.01072981043201,-67.60214340072378
-4.199075686615385,-272.93991963,5.800978249323291,-0.8457216401185904,0.0001509,0.0,1,65,1531.1599071489356,5349.001199999999,mp-1225888,In16Bi8Pb3S38,https://materialsproject.org/materials/mp-1225888,7.7547595695208065,-5.280925589605255,-7.9024356673824325,-18.271712058377926
-7.0487660628125,-225.56051401,4.18950838386599,-2.4335025615462498,0.0,2.5239000000000003,14,32,431.08769212535174,1087.62604,mp-24050,LaCrHO5,https://materialsproject.org/materials/mp-24050,-19.53300481937155,-18.755003817407967,-31.019800981030297,-36.048757824662964
-2.620679771,-26.20679771,4.332299521201101,-1.2812460212413792,7.699999999999999e-06,2.9022,194,10,371.81578787397314,970.0569037999999,mp-541899,CsCdBr3,https://materialsproject.org/materials/mp-541899,2.2994704164818445,12.261343262794492,-31.09041338379309,-70.55296894000827
-5.8427547925,-23.37101917,5.8140361533105684,-2.669183959345,7.085e-05,0.0,194,4,90.19742536912408,315.8077464000001,mp-1184996,LaF,https://materialsproject.org/materials/mp-1184996,7.646539438024031,-37.2889139008931,3.371121862240086,-54.20828593715833
-2.899760815,-34.79712978,4.817214121797238,-0.6245687627011489,0.0,1.9006000000000003,63,12,441.71812696590797,1281.4217237999999,mp-23431,CsCu2I3,https://materialsproject.org/materials/mp-23431,17.202876370524713,13.18468155270098,-15.983738740533814,-14.279770830913119
-6.85669521642857,-191.98746606,4.141000709609438,-2.6391114986160717,1.00000005,0.7829000000000002,14,28,402.55127775076767,1003.8698800000001,mp-1193569,LaSO5,https://materialsproject.org/materials/mp-1193569,-34.583053190402396,-25.69566973136755,-31.773451748973898,-36.11163062029194
-4.832248551923077,-251.2769247,4.648223818109151,-1.1522419146618033,0.00475945,0.9768,163,52,1621.5364514744126,4539.0467638,mp-1213382,CsPr(NbBr3)6,https://materialsproject.org/materials/mp-1213382,7.930013532957343,1.28782143479166,-2.088950999425228,-20.790505244475103
-4.458726236666666,-13.37617871,4.403707436249589,-0.5248397341266665,1.18e-05,0.05479999999999974,166,3,108.84745832978192,288.6607,mp-1892,Ba2N,https://materialsproject.org/materials/mp-1892,-3.6293665358236034,-26.591807758215328,-24.182837935835053,-68.76452951065454
-3.3209165178571434,-92.9856625,3.92729953258092,-0.5476200365714289,3.5e-07,1.0387,14,28,1118.335059363583,2644.9464,mp-28126,K2GeTe4,https://materialsproject.org/materials/mp-28126,-2.439582610277085,-1.5806109142763742,-31.97230105351518,-32.438527674081165
-3.7680605064,-376.80605064,5.118591593690192,0.07119469110000011,7.999999999999999e-09,0.0,1,100,2346.231388349769,7232.23,mp-1245274,GaAs,https://materialsproject.org/materials/mp-1245274,33.40299919589637,20.841880105311425,54.26769523529504,-2.219879645305897
-6.570370545,-26.28148218,5.277807201646208,-2.9713819488362074,0.0,3.5458000000000003,166,4,80.66149723465213,256.37207,mp-7972,RbLaO2,https://materialsproject.org/materials/mp-7972,3.5179849114022113,-59.256369863886356,6.607669832443482,-55.8877706064436
-2.5909507565,-51.81901513,3.5313794093011035,-0.3680170907068966,1.47e-05,0.28679999999999994,11,20,851.1695493012338,1810.1366772,mp-9698,Rb6AlSb3,https://materialsproject.org/materials/mp-9698,-4.992460957854341,-24.56468437191978,-27.346822770350904,-56.71344381797572
-3.798364494464285,-212.70841169,4.0174229622486335,-0.6798519588511905,0.0,1.3747000000000005,14,56,1945.86683863112,4707.7304,mp-568379,KInSnSe4,https://materialsproject.org/materials/mp-568379,-4.3428972285158105,0.99303173671253,-38.08882590984722,-35.05397447841264
-8.380631436,-41.90315718,6.516974080503171,-3.87414570825,0.0,3.8444,164,5,83.01687100112787,325.80914,mp-1968,La2O3,https://materialsproject.org/materials/mp-1968,2.634690607418979,-59.87985669072342,-3.5522872418182883,-86.53060430655651
-8.67259482275,-346.90379291,5.861596664188693,-2.093735302520834,20.99987425,0.8866000000000005,58,40,882.6879388838687,3115.8320000000003,mp-1200532,Gd3InS6,https://materialsproject.org/materials/mp-1200532,12.92617876642763,-5.625639779395901,-3.205810694371022,-14.672059310132266
-4.8894261766666665,-58.67311412,4.890458183691642,-3.4094893399600004,0.0,4.5488,36,12,189.2834520912314,557.4592256,mp-3881,BaZnF4,https://materialsproject.org/materials/mp-3881,-12.907465108635273,-22.3045026734292,-15.74773717751344,-17.300974613543328
-3.417742652,-17.08871326,6.796053821910332,-0.1992791084375,1e-07,0.0,164,5,97.10582408372032,397.423,mp-1096867,Cd(CuSe)2,https://materialsproject.org/materials/mp-1096867,26.13143269731669,22.333153775693578,57.593963148948795,-25.65158891351912
-6.8156180840625,-218.09977869,4.354601568134654,-2.5942987861165623,1.0000289,0.008399999999999963,14,32,386.18930450547913,1012.74376,mp-510452,CeHSO5,https://materialsproject.org/materials/mp-510452,-34.451836936932374,-25.716093662648387,-31.65255501761226,-36.89102543938355
-4.1956626275,-16.78265051,3.95832920441759,-0.9546236420312506,1.83e-05,0.0,123,4,80.8935758210523,192.831,mp-756784,LiSbS2,https://materialsproject.org/materials/mp-756784,13.630292735708533,9.449778131510325,-27.236708291324906,-77.50204403915636
-3.781152233333333,-68.0607402,4.183259605874693,-0.9621007885532412,0.0,0.0,186,18,413.4449889257308,1041.558,mp-560806,Zn2In2S5,https://materialsproject.org/materials/mp-560806,-1.6553576794320863,9.624008955002074,-14.137467049393909,-71.09368066417477
-3.9223646086111112,-141.20512591,2.765874733452496,-1.0792861510155554,0.0,3.5389999999999997,62,36,568.6876387802719,947.23384,mp-24356,CdH4NCl3,https://materialsproject.org/materials/mp-24356,-26.64040244849609,-2.722498542909624,-34.23300558407859,-33.49964057863132
-5.426183809166666,-65.11420571,4.81700822469664,-3.285719053293333,2.99999985,2.9937,36,12,187.7049220396661,544.5076156,mp-556101,BaCoF4,https://materialsproject.org/materials/mp-556101,-12.927414863941872,-22.21187308204729,-15.715115971257827,-17.296008649970172
-4.1812148335,-83.62429667,4.991466014643972,-0.4441009612968756,0.00025110000000000003,1.0332999999999997,26,20,545.6645285350044,1640.23,mp-1219516,Sb4(SeS)3,https://materialsproject.org/materials/mp-1219516,15.946322085258831,1.7913760425875844,-2.1134279262595035,-18.46619871950511
-4.117103348333333,-24.70262009,2.342615175260558,-1.272712671041667,2.8e-06,0.9199000000000002,166,6,125.37250808687908,176.87,mp-1185959,MgS2,https://materialsproject.org/materials/mp-1185959,-3.128376931790167,9.966055800992585,-15.120498256741286,-72.4869101342581
-6.778245399999999,-433.80770559999996,2.92851606536174,-2.8104538110937503,1.895e-05,3.721000000000001,61,64,853.8860531534883,1505.908,mp-1182212,Ca2SiO5,https://materialsproject.org/materials/mp-1182212,-17.134227617570605,30.61122366241233,-11.791824617912251,15.182225070163181
-3.7572442625,-60.11590820000001,3.826147519806777,-0.7030744212968751,0.0,1.1208,13,16,553.3961349002708,1275.1132,mp-9576,KSbSe2,https://materialsproject.org/materials/mp-9576,11.848634736887087,2.1088179023036493,-33.1434486179779,-31.67990792778116
-5.824426696428572,-81.54197375,3.9307881514667953,-1.9165860257142864,2.9999964,1.0115000000000005,166,14,341.42205830027945,808.2061,mp-1247295,Sm3Mg2CrS8,https://materialsproject.org/materials/mp-1247295,12.781676917059656,7.825509615000602,-24.32034234829456,-78.3586186166754
-6.305339356999999,-126.10678714,3.9231727528011966,-2.1803731714375005,0.0,0.552,62,20,465.6567791428106,1100.156,mp-558760,SrZrS3,https://materialsproject.org/materials/mp-558760,10.192358917969077,-8.229971800914951,-3.078112774503808,-21.702146605894498
-5.3906666025,-21.56266641,4.5949509797011565,-2.1793415069062503,0.0,2.3147000000000006,166,4,91.0867199963352,252.05008928,mp-5694,NaHoS2,https://materialsproject.org/materials/mp-5694,14.255357743161273,6.717322593099919,-25.342284010645624,-76.63316053241074
-3.29314600375,-105.38067212,4.576591146890689,-0.7404237628017243,0.0,1.5030000000000001,15,32,1328.9227612463771,3662.6276151999996,mp-17688,CsGaTe2,https://materialsproject.org/materials/mp-17688,-6.560148513828251,-13.04083569999171,-16.319718649480286,-14.337977038297053
-6.09043268,-170.53211504,3.611532957168054,-2.081108498750001,0.0,2.3414,62,28,683.2092768055268,1485.9228,mp-1194113,Y2ZnS4,https://materialsproject.org/materials/mp-1194113,11.294564825442686,13.057511016795294,-11.724048229046467,-14.355696492316207
-3.5141767575,-42.17012109,5.373411533100951,-1.1532512619980249,0.0,0.0,63,12,375.92395320225603,1216.4689038,mp-573935,CsYbZnSe3,https://materialsproject.org/materials/mp-573935,10.154818279662356,0.7095747160034026,-2.805967731172256,-19.932799285340653
-7.045029618095237,-295.89124396,3.969687528395409,-3.392466156483504,0.0,5.1009,143,42,627.6576923295897,1500.4795752,mp-1218899,Sr10P6ClO24F,https://materialsproject.org/materials/mp-1218899,-20.093545334279252,-32.478121129954516,-9.842280123550873,-33.597982959924835
-7.10642064875,-284.25682595,4.215936406605892,-2.1238838961875004,2.999996625,0.3092000000000006,58,40,805.237539144725,2044.4146,mp-1207827,Y3CrS6,https://materialsproject.org/materials/mp-1207827,17.397900801994485,5.402550688271843,-3.160731253941675,-15.944646680053804
-4.462394636875,-142.79662838,5.392785958740221,-0.4902978514008618,0.0,1.0327000000000002,33,32,1063.3091891423264,3453.2153276,mp-505321,CsNb(CuTe2)2,https://materialsproject.org/materials/mp-505321,16.484942641383867,13.434505464116492,-12.04542963149415,-13.946558779912882
-3.9750040275,-47.70004833,5.787996050141548,-1.2362249757480246,6.5e-07,1.3561000000000003,63,12,410.038350843813,1429.2349038,mp-510065,CsNdHgSe3,https://materialsproject.org/materials/mp-510065,10.119799095888236,0.5373177084567434,-3.417299690053752,-20.116129986917127
-2.9846749530000003,-29.84674953,4.5264857968592045,-0.7410698534827589,4.4e-06,0.6368999999999998,36,10,475.8851682587463,1297.2218076,mp-505634,Cs2Te3,https://materialsproject.org/materials/mp-505634,-6.507113019260126,-24.6299485704432,-27.84527920918537,-56.79857617537029
-10.190158245,-203.80316489999998,6.1140315260396685,-2.4781437034375022,14.000010000000001,0.4572999999999996,62,20,446.1704707463592,1642.78,mp-608146,Gd2S3,https://materialsproject.org/materials/mp-608146,13.785283768959072,-5.879139489945429,-1.5114894058744337,-13.309074973272715
-6.072449915,-60.72449915,5.314343743639388,-2.2474706457500004,0.0,0.7465999999999999,12,10,196.1072496160853,627.61628,mp-1080184,LaIO3,https://materialsproject.org/materials/mp-1080184,-30.720534685576364,-57.86851892144414,-22.56674463675016,-55.7312057610166
-4.180522807142856,-58.527319299999995,3.924914447308641,-1.1854191247023813,4.25e-06,1.7646000000000002,227,14,323.4005174620982,764.4019999999999,mp-20493,Mg(InS2)2,https://materialsproject.org/materials/mp-20493,13.996126334904075,10.219626768971283,-23.30822082111873,-78.65433084725427
-6.031104085,-36.18662451,4.094452958408891,-1.5569285855136492,5.0000208,0.0,123,6,127.7175224101489,314.9178519,mp-1070912,CsV2S2O,https://materialsproject.org/materials/mp-1070912,-7.374235429302492,-11.05589416409764,24.446685557844084,-39.735058482134974