energy_per_atom,energy,density,formation_energy_per_atom,total_magnetization,band_gap,sgr,num_sites,cell_volume,weight,mp_id,formula,URL,tsne_cry_0,tsne_cry_1,tsne_xrd_0,tsne_xrd_1
-4.85546306875,-77.6874091,4.217615936755603,-0.680441903072917,3.99999995,0.0,7,16,336.9625562742898,855.8538,mp-1189794,FeSi(AgS2)2,https://materialsproject.org/materials/mp-1189794,-2.2968747471589723,9.2366864893775,-14.714190012617884,-70.1822417017123
-3.27692026125,-26.21536209,3.9249814026245065,-0.6704619532500002,0.00120805,1.3481,122,8,308.0124556194644,728.0426,mp-1097013,KGaTe2,https://materialsproject.org/materials/mp-1097013,-2.220387183097346,-1.2709186991697008,-25.017390261817702,-1.1538905750623571
-3.80323497875,-30.42587983,3.5916811661663752,-0.3912412456066665,1.00000005,0.036099999999999986,12,8,162.11110676259526,350.64,mp-997017,AgClO2,https://materialsproject.org/materials/mp-997017,-8.325802274280798,5.937939391598393,-34.30818815076152,-33.714632376653185
-8.573587886,-85.73587886,5.161219555213341,-2.1879138799560005,13.99512025,0.1208999999999998,8,10,270.80917304881933,841.7180000000002,mp-656152,Gd2Cl3,https://materialsproject.org/materials/mp-656152,6.06573995935805,-0.5933651584626146,-3.594770297341101,-21.40332611790408
-6.616199703333333,-59.54579733,5.1590344303858355,-2.4211774336111107,3.9999994,0.0,123,9,148.66356934144673,461.8744,mp-1228078,Ba2ZrO6,https://materialsproject.org/materials/mp-1228078,-10.879727696260305,-81.61345984619817,15.71665695498088,-72.50751849707477
-10.3149376885,-1031.49376885,6.327754147852932,-2.572443280724999,70.008351775,1.2678000000000005,142,100,2138.6405161211437,8149.637599999999,mp-556437,Gd10S14O,https://materialsproject.org/materials/mp-556437,13.630864327851384,-5.659335661734878,-1.4260743339816333,-12.722498705564512
-4.0366565225,-48.43987827,4.019570612442359,-0.1252155055952381,1.775e-06,1.4388999999999998,33,12,288.1194674501355,697.434096,mp-402,CdP2,https://materialsproject.org/materials/mp-402,0.5981183545303761,9.585293822681882,-18.013306299082455,-70.09517990934694
-5.84760157,-23.39040628,6.9966229118823895,-0.04647857000000055,2.00313605,0.0,129,4,87.07560433919251,366.89,mp-21273,FeTe,https://materialsproject.org/materials/mp-21273,8.320361516601405,25.5826188407724,22.886575167512717,-46.31569330655627
-6.666310077142858,-93.32834108,5.180554241317434,-3.0866745142857144,1.0258377,0.0,55,14,243.69826049153824,760.2905000000002,mp-19975,Sr2PrO4,https://materialsproject.org/materials/mp-19975,-7.861553420885108,-62.58178062160682,-0.21897179080833304,-58.74260228681428
-3.7273258078571434,-52.18256131,4.760196189958271,-0.3663089403125,6e-07,1.6903,161,14,345.15546575522524,989.4424,mp-555843,Ag3AsS3,https://materialsproject.org/materials/mp-555843,-6.822379276811984,-10.91450274382285,-14.514827570376392,-68.09990915233955
-5.652719426428571,-79.13807197,5.520074728061283,-0.5067663806249995,11.9266185,0.0,216,14,319.5744138208412,1062.3506,mp-1226322,Cr4InAgSe8,https://materialsproject.org/materials/mp-1226322,5.508906649747823,26.24299002445408,-19.29578627751637,-76.10873326730831
-5.714744131000001,-571.4744131,4.875724321916941,-2.6392397053750005,0.0,1.7654,1,100,2610.9399983729554,7666.3200000000015,mp-1245298,BaO,https://materialsproject.org/materials/mp-1245298,-3.746435318202464,-24.78685569656334,-21.63576893450102,-32.214088264118324
-2.942198131388889,-105.91913273,4.288169182416169,-0.3818401637260536,0.00104835,0.8261999999999996,62,36,1489.983879532793,3847.728238,mp-616141,Cs5GeAs3,https://materialsproject.org/materials/mp-616141,-5.046455996865565,-24.40993582889293,-27.71893338874339,-56.743965603434475
-3.7349003269230767,-48.55370425,3.773932909614281,-0.8779441776586541,0.0,2.0392,5,13,323.53546169789337,735.30407712,mp-1103730,Na4Mg(GeSe3)2,https://materialsproject.org/materials/mp-1103730,-3.991036109057764,-1.455552885025259,-27.15956606971674,-39.34877413482417
-2.9755618894444438,-53.56011401,3.51280488447322,-1.1973224706666667,0.0,1.6057,14,18,639.4168774990416,1352.6612,mp-574040,K2SnBr6,https://materialsproject.org/materials/mp-574040,-1.4913436933967916,14.257704948604614,-23.861092896789398,-72.74447756236144
-4.688426576956521,-215.66762254,4.459606616707792,-1.1517253615942031,1.5711416999999999,0.0,58,46,1201.601293167997,3227.066,mp-540672,Ti7Br16,https://materialsproject.org/materials/mp-540672,-2.618075839918447,14.186729176890466,8.6954211807144,-55.140134169850256
-7.371617208958334,-353.83762603,3.447999129555188,-2.9321926069162507,5e-08,5.04,2,48,517.9400570751744,1075.46816,mp-1201690,Sr3B6H2O13,https://materialsproject.org/materials/mp-1201690,-18.85564383094959,-29.434766230013015,-29.48913932148832,-36.695694638090714
-4.872540405714285,-68.21556568,3.34808070513896,-1.7480173801785717,5.520000000000001e-05,1.2939000000000005,55,14,324.48769419761913,654.252,mp-866824,Ca2SnS4,https://materialsproject.org/materials/mp-866824,-3.65894289017005,1.948331495569348,-9.545254975841551,-16.590615067055904
-7.5517288267857134,-211.44840715,6.394894331666549,-3.4949263503571437,0.0,3.0743,62,28,501.8207489427701,1932.5596,mp-17412,BaPr2O4,https://materialsproject.org/materials/mp-17412,-7.673791170752713,-62.58047844183725,-0.4665377571599148,-58.79231671331535
-5.072256615,-71.01159261,4.370900970381575,-0.9296716611309525,3.41797415,0.0,74,14,311.4423496893661,819.7841999999998,mp-677093,Cr(InS2)2,https://materialsproject.org/materials/mp-677093,4.047561416161643,28.181968639486907,-19.644519185816193,-77.11923677434599
-7.2169026529166675,-519.61699101,3.7478357108556417,-2.710282847929894,1.000000025,0.17550000000000046,14,72,999.330409875396,2255.4881920000003,mp-1202277,CeAg(PO3)4,https://materialsproject.org/materials/mp-1202277,-34.94212563153568,-24.408396315070554,-32.87009357515813,-27.40135567739119
-4.244363411,-42.44363411,3.9681486779040895,-1.009206892104166,0.0,1.6639999999999997,36,10,234.95747048453075,561.472,mp-19885,InGaS3,https://materialsproject.org/materials/mp-19885,-6.814159065538273,-0.9813838248720622,-35.035470955695374,-47.18334679237147
-5.9234746215000005,-355.40847729,3.753419327640756,-3.4838456928766663,1.00434275,0.0393,64,60,854.9186976296044,1932.425728,mp-1209027,Sr2V2OF10,https://materialsproject.org/materials/mp-1209027,-14.69450221670266,-24.849093506478013,-16.211555808517055,-16.390592143844035
-6.348104269249999,-253.92417077,5.840402853191212,-2.4781818396875,0.0,2.2738000000000005,206,40,987.3007364237976,3472.50736,mp-18529,Tm2S3,https://materialsproject.org/materials/mp-18529,10.87465127271441,11.530896402363565,-6.607626019034903,-11.955501870799928
-5.30078472,-21.20313888,4.8343858249043485,-2.172589535867458,0.0,2.3664999999999994,166,4,108.83555958214859,316.8568,mp-9367,RbErS2,https://materialsproject.org/materials/mp-9367,5.2789382334968815,-4.1608166996299945,-3.2698209552336874,-5.059306738366247
-3.9872362375,-95.6936697,2.2865516378535173,0.1644201925000003,0.0010609125,0.0,1,24,467.546107669757,643.808,mp-1073363,MgSi2,https://materialsproject.org/materials/mp-1073363,34.678094242272614,20.657986844034,55.00488988917171,-2.096598655952012
-2.9478944765625,-94.33262325,4.297238321916321,-0.4365263396659485,0.0,0.5215999999999998,14,32,1574.5253796605298,4074.6472304,mp-1204039,CsSb,https://materialsproject.org/materials/mp-1204039,2.0500457294069627,-3.8363223282169754,-19.560846499366257,-13.77596659819364
-5.234214875555555,-94.21586776,5.204328185333639,-3.4040170541266668,1.00000075,0.8405,64,18,288.5597594370109,904.3808384,mp-3879,Ba2CuF6,https://materialsproject.org/materials/mp-3879,-12.024668725974614,-22.089038467574888,-1.434140157799615,-7.509388170485799
-6.515100227142858,-45.60570159,3.4391558290593425,-2.797120924504976,0.0,4.1259,187,7,121.71991659096342,252.0951032,mp-867261,RbSrCO3F,https://materialsproject.org/materials/mp-867261,-18.901170455260885,-23.75324799001509,-14.822932544053321,-10.578815710516649
-3.9713512125,-15.88540485,3.9776924339892745,-0.8727050081562506,0.0,0.21919999999999984,123,4,87.19955534816694,208.87976928,mp-1220873,NaSbS2,https://materialsproject.org/materials/mp-1220873,14.459108135648789,8.891427599630099,-30.753120911506077,-72.33205698309352
-7.509102469999998,-45.05461482,3.832736146543684,-3.5265523640033334,0.0,4.2988,166,6,121.62087073030584,280.7165,mp-552120,YClO,https://materialsproject.org/materials/mp-552120,-0.5539438081996709,-57.617517176649294,19.94465806262791,-35.38602980431036
-4.4493601325,-17.79744053,3.7528151545909316,-0.7124521420312506,1.025e-05,1.1822999999999997,63,4,133.429312898461,301.5499999999999,mp-1379,SnS,https://materialsproject.org/materials/mp-1379,4.886588597920946,-6.512134268896152,-5.322721064221334,-12.325225127327373
-6.23615751625,-49.88926013,5.067654927242426,-2.500178283315,0.0,3.3647,11,8,138.7331317830022,423.3876,mp-1206067,NdClO2,https://materialsproject.org/materials/mp-1206067,-14.353588804857251,-27.98592834330807,-33.27593669018413,-31.84609994098989
-5.544691628000001,-55.44691628,3.4328851548664803,-2.2054273819560004,0.0,0.7778,12,10,274.91542541421336,568.3414,mp-27678,Y2Cl3,https://materialsproject.org/materials/mp-27678,6.175610129220943,-0.4272670610067196,-3.4499302255919453,-21.624579763744322
-3.8703831528571433,-27.09268207,4.793755444780456,-0.13875765747023802,1.924205,0.0,139,7,133.25795332399994,384.697995,mp-1147770,In2Co(SO)2,https://materialsproject.org/materials/mp-1147770,15.122107706934395,12.617471089600333,14.292729456208393,-8.460651030740173
-3.3065836675,-66.13167335,5.253750056081801,-0.23072302550000004,5e-08,1.0560999999999998,167,20,789.6747075586225,2498.43782,mp-1205361,Te6RhI3,https://materialsproject.org/materials/mp-1205361,14.19195735145009,0.7617546565409635,-10.67406418375893,-6.13639588287207
-4.5544577025,-18.21783081,4.821190994668097,-0.469590309051724,4.0000002,0.0,119,4,152.59528689782096,443.0434969,mp-1207341,CsMnTe2,https://materialsproject.org/materials/mp-1207341,-6.5306963277497605,-13.158019828538256,-63.90988620747258,-62.8200521037954
-3.6911724269999997,-73.82344854,4.1124518501005785,-1.6846306445,1.2e-06,4.3592,15,20,539.0554408106353,1335.0120000000002,mp-37873,Li3ErBr6,https://materialsproject.org/materials/mp-37873,1.4275547346938933,12.315566205300527,-25.697099843535643,-75.52290731873421
-6.388615105,-127.77230209999999,6.192192102450805,-2.4738351919375,0.0,1.0215,11,20,460.28041082132034,1716.3973,mp-1189644,Pr(LuS2)3,https://materialsproject.org/materials/mp-1189644,8.880086689440674,-3.10445628794933,-5.3290557544171735,-14.522010037252512
-4.0091402745,-80.18280549,6.587846256876418,-0.7275385825,0.0,0.6059000000000001,62,20,523.9027152615265,2078.476,mp-30133,Ba(CuTe)2,https://materialsproject.org/materials/mp-30133,19.037216948546707,-37.314804957674475,17.01633541286045,-41.308327352053674
-4.611296478529412,-156.78408027,1.8059224431005896,-0.5252488215288229,1.00000025,0.0,176,34,511.01975274543815,555.76052,mp-698392,CdH9C3NCl3,https://materialsproject.org/materials/mp-698392,-27.099273225711556,-2.7108971438067364,-74.1349579416376,-10.839913836275713
-4.696745683888889,-84.54142231,4.134200238698273,-1.0319430515182002,0.0,0.8488000000000002,194,18,458.0127288934103,1140.3022076,mp-28486,Cs2Ni3S4,https://materialsproject.org/materials/mp-28486,-8.358903153345274,7.4708674681164595,-25.802262384264363,-35.108373797205694
-2.620630584,-26.20630584,4.502245065547099,-0.7368505686226665,0.79290735,0.0,167,10,237.593457716155,644.1908000000002,mp-864635,Ag2Cl3,https://materialsproject.org/materials/mp-864635,12.227287584012695,12.492518222828801,3.3225889607297363,-16.386684375225624
-5.549186728928571,-155.37722841,4.872186014741826,-2.032310632678571,1e-07,1.6151999999999995,62,28,657.6814651108386,1929.7025600000002,mp-1232304,Ho2MgS4,https://materialsproject.org/materials/mp-1232304,12.223041101752633,5.576756111129174,-27.82737223854652,-35.866623991639926
-7.675248567941176,-521.91690262,6.072270688574643,-3.2521511659558824,4.000000025,0.0,2,68,1117.3018606246685,4085.7572,mp-8825,Pr6O11,https://materialsproject.org/materials/mp-8825,-23.88962004662579,-66.86763371000794,-16.059229576855177,-67.06015260236558
-4.141169927857144,-57.97637899,4.766155785330118,-0.7915122851785716,0.0,0.5046999999999997,74,14,327.25848277073504,939.3124,mp-1224048,InAgSnS4,https://materialsproject.org/materials/mp-1224048,4.258726922183374,26.19151656156292,-20.544623286112962,-76.09584385440209
-2.8339644685416663,-272.06058898,4.317623805830299,-0.7370982065972219,0.0,2.0779,15,96,3487.2604419074187,9067.344,mp-568546,In5Br7,https://materialsproject.org/materials/mp-568546,-5.269822489260968,-6.769643293407032,-20.92756622594731,-31.041925713251878
-5.4411069565,-108.82213913,6.552642552072188,-2.1355994829375,0.015536875,0.0,62,20,437.6327972950001,1726.9399999999996,mp-1215722,YbDyS3,https://materialsproject.org/materials/mp-1215722,13.715137413731426,-5.626254846525775,-1.2806864788416683,-13.345889796405508
-6.78751736625,-54.30013893,5.6713701530147045,-2.0091995796875013,1.00000005,0.0,1,8,112.57327543247035,384.4804,mp-673673,NdO3,https://materialsproject.org/materials/mp-673673,-12.968123971254856,-34.11630218233676,-27.24710421534907,-36.948746587357945
-3.786283675,-378.62836749999997,5.082215311837773,0.0529715225000001,0.0,0.0,1,100,2363.0246898997466,7232.23,mp-1245314,GaAs,https://materialsproject.org/materials/mp-1245314,33.41284772580678,20.85803983263259,54.36346098733857,-2.209151933943902
-4.844285276413044,-445.67424543,5.163367331702727,-1.6309608768251818,7.5e-08,1.1445,55,92,2124.807322227608,6606.9875200000015,mp-1196490,La4Cd4In2S13,https://materialsproject.org/materials/mp-1196490,12.225688537207002,-5.814094197845843,-2.602335516241584,-14.28858205187507
-5.834410480000002,-81.68174672,3.8753628961424944,-2.0508252740476203,0.9999964,0.0,166,14,344.53579843970965,804.077,mp-1247047,Sm3Mg2TiS8,https://materialsproject.org/materials/mp-1247047,12.852801286346722,7.811637608150297,-24.42440641261234,-78.3042298655443
-7.7221407019354835,-1436.31817056,6.667344973735285,-2.6741523203225808,6.00000005,0.6152000000000006,14,186,2556.90051666106,10266.38784,mp-1197618,La16(Mo3O8)7,https://materialsproject.org/materials/mp-1197618,12.430961337606002,-17.296298547163435,3.315253401319952,-21.91033346258299
-5.271475663333333,-63.25770796,6.86994424699266,-0.12344915666666625,3.28122395,0.0,205,12,299.8547370961376,1240.5521800000001,mp-21893,MnTe2,https://materialsproject.org/materials/mp-21893,32.52761326190207,-7.637545934383098,26.27599748563455,-38.85013719996421
-4.0375669675,-96.90160722,4.022742719165786,-0.12612595059523812,0.0,1.4576000000000002,96,24,575.7845455626214,1394.868192,mp-913,CdP2,https://materialsproject.org/materials/mp-913,0.5914745789854972,9.587756829564444,-17.94468005243005,-70.28729406704937
-1.904827506,-9.52413753,5.365339519048347,0.1302783399999999,0.0,0.0,121,5,176.7716502582301,571.1638800000002,mp-33218,CuI4,https://materialsproject.org/materials/mp-33218,-2.8532158780849723,-64.63633734185504,-9.275376273278377,-78.95907331138623
-4.0375665225,-96.90159654,4.0230059173923305,-0.12612550559523802,0.0,1.5218000000000005,92,24,575.7468758513713,1394.868192,mp-12112,CdP2,https://materialsproject.org/materials/mp-12112,0.587091885776802,9.588416410682653,-17.940225545202264,-70.28755687724488
-7.165433280769231,-93.15063265,4.272812656307448,-3.0379031046153853,0.0,3.6859,166,13,191.4923689414512,492.7382,mp-19386,Sr3V2O8,https://materialsproject.org/materials/mp-19386,-9.935341497320351,-80.79760233923716,18.920994916985016,-73.09526556347583
-3.694174564,-36.94174564,4.056060076788495,-1.6876327815,0.0,4.4954,5,10,273.274988893129,667.5060000000001,mp-1222492,Li3ErBr6,https://materialsproject.org/materials/mp-1222492,1.445310294406596,12.253827038991965,-25.699549275594016,-75.59386687642933
-8.092029513863636,-356.04929861,6.183359313428615,-3.39239096875,0.0,0.018800000000000597,19,44,671.0005539381327,2498.60884,mp-29150,La3MoO7,https://materialsproject.org/materials/mp-29150,-11.381819793259352,-62.14672251382943,-8.554878729207225,-65.98994372876776
-3.680965494130435,-169.32441273,4.612760153981762,-0.23741015152173955,0.0,1.178,2,46,2039.595501330064,5665.7294,mp-505260,Te10Mo3I10,https://materialsproject.org/materials/mp-505260,13.826845583599471,0.9359889076772728,-14.717464519031092,-5.719845137377307
-4.881817987142857,-34.17272591,3.0026560302240157,-1.757294961607143,5e-07,1.0795,65,7,180.9083320004901,327.126,mp-866818,Ca2SnS4,https://materialsproject.org/materials/mp-866818,13.26890080083768,8.097908369762466,-25.00495513114183,-76.28366472396479
-8.368447787600001,-209.21119469,6.71184763929241,-3.8763292733500014,0.0,3.8787,1,25,410.047467431946,1657.39923,mp-766452,La9ErO15,https://materialsproject.org/materials/mp-766452,2.61358478784916,-59.88960532316529,-3.5091394489280616,-86.633365646569
-4.384004778,-43.84004778,5.872010856675639,0.6843207980000002,3.64440195,0.0,227,10,330.7322747122769,1169.538,mp-1214097,Ce4Mg,https://materialsproject.org/materials/mp-1214097,22.97877617941849,4.2874378072365324,11.270027394081366,2.414298965087982
-3.743658784852941,-509.13759474,4.24278289700554,-0.4394329440212981,1.0033054625,0.3195000000000001,61,136,5734.468324120602,14651.931416800002,mp-1198953,Cs9(NbAs3)2,https://materialsproject.org/materials/mp-1198953,-4.338533310025464,-24.48795666090471,-28.869624783036127,-48.28716355916654
-4.317651782083334,-103.62364277,4.446615824253166,0.030277107916666306,0.013152100000000002,0.0,73,24,528.2657972502686,1414.5979088,mp-1182888,AlAs2,https://materialsproject.org/materials/mp-1182888,19.93639095920511,23.19729073231339,17.952040646809863,-44.71944903604199
-4.521930775357143,-126.61406171,4.038047238820221,-1.6446928988690481,0.000235175,0.0,62,28,750.3936661356784,1824.784,mp-541277,CaYbInS4,https://materialsproject.org/materials/mp-541277,-5.340965071290111,5.04020130343409,-36.459888749894425,-29.934384366812374
-3.484153282857143,-24.38907298,5.180564995564728,-0.5732320437202384,7e-07,0.7710999999999997,121,7,210.87411283204887,657.887,mp-568661,Cd(InSe2)2,https://materialsproject.org/materials/mp-568661,15.526822170955294,14.730907470336106,5.8858232419522905,-16.485286092502115
-5.0486724999999995,-126.2168125,8.029718983495176,-0.3926291656000001,1.88e-05,0.0,10,25,613.7280664267272,2967.7495,mp-1217429,Te16Rh9,https://materialsproject.org/materials/mp-1217429,28.953425434294587,23.541538741586304,25.98027614332736,-44.12240787231655
-5.471445918571428,-76.60024286,5.399535012138548,-2.0561272201785714,0.0,1.1466,227,14,353.7800154018344,1150.378,mp-3041,Er2CdS4,https://materialsproject.org/materials/mp-3041,10.629975122037928,12.322781385376727,-21.03575309712892,-75.01810397191707
-4.371910991666667,-26.23146595,5.104885186963412,-1.5028148890277775,2e-07,1.9953,59,6,137.08872910875272,421.4428,mp-27703,InBrO,https://materialsproject.org/materials/mp-27703,12.116458748966837,-19.84395993042038,7.770613845562512,-20.163334320819786
-3.450587065,-27.60469652,4.804721875203941,-0.3640451750000002,0.0,0.8034000000000003,194,8,272.78377687658514,789.2919999999998,mp-10009,GaTe,https://materialsproject.org/materials/mp-10009,17.388717047304002,14.093104183038767,-8.554938805304356,-14.714717447843446
-5.4388770145833325,-130.53304835,4.254746352445417,-2.189545019906609,0.9951860999999999,0.0,62,24,561.754545571702,1439.3658,mp-752428,Rb2PrO3,https://materialsproject.org/materials/mp-752428,-5.562642529546106,-30.846378744510695,-23.046947544648088,-52.77056761908635
-3.82890442625,-30.63123541,6.044917709987843,-0.358772255248518,4e-07,0.0,123,8,171.4044234109906,623.9694519,mp-505198,CsCu4Se3,https://materialsproject.org/materials/mp-505198,15.330827947191448,23.20226167704873,20.775215736931234,-46.88937051462956