energy_per_atom,energy,density,formation_energy_per_atom,total_magnetization,band_gap,sgr,num_sites,cell_volume,weight,mp_id,formula,URL,tsne_cry_0,tsne_cry_1,tsne_xrd_0,tsne_xrd_1
-2.644763197,-26.44763197,3.2771930759086607,-1.034797223634483,0.0,1.9161,225,10,482.41099866764716,952.0727586000002,mp-1111610,K2RbAlI6,https://materialsproject.org/materials/mp-1111610,2.4882728735237403,3.624478564184829,-17.418775793000115,6.798810622125214
-7.086572974615384,-92.12544867,6.662746958552737,-0.4747927592307694,1.9e-06,0.3764000000000003,174,13,368.49939552394386,1478.567,mp-1228689,Ba(TeMo)6,https://materialsproject.org/materials/mp-1228689,20.620383537248074,4.677665303589322,14.991447140256836,-9.543228019437198
-7.303867496774193,-226.4198924,2.616822170297838,-3.2758816776209687,2.0000003,0.7090000000000001,2,31,452.4242680955407,712.9696,mp-1202163,Ca6Si6O19,https://materialsproject.org/materials/mp-1202163,-52.06540586807636,18.633800424978663,-29.52048381178471,18.561632432509807
-5.010733781428572,-70.15027294,4.609473336228286,-1.7580722801785715,6.05e-05,0.0,74,14,362.1302655238917,1005.2337,mp-1215620,YbYCdS4,https://materialsproject.org/materials/mp-1215620,10.710758434632183,12.393663513831136,-20.99677852995671,-74.84385093945295
-2.9518514075,-11.80740563,5.702226786709262,-0.14267565249999992,1e-07,1.5721999999999996,129,4,110.92173371934791,380.90094,mp-22863,CuI,https://materialsproject.org/materials/mp-22863,15.72369756969499,14.306393607380313,4.954684260971988,-16.361689151386887
-5.615952775625,-89.85524441,5.777097084375915,-1.7075594651562502,0.0,1.6177,62,16,333.6267813633898,1160.704,mp-555044,DyCuS2,https://materialsproject.org/materials/mp-555044,16.15525606238111,-12.984319807632403,-10.45287096915211,-16.694683375292346
-5.855537820892858,-327.91011797,3.744674829730587,-4.064836791028571,0.0,7.2457,14,56,743.5375209242642,1676.7484367999998,mp-16557,SrAlF5,https://materialsproject.org/materials/mp-16557,-14.941607042620928,-25.95983820875457,-15.191848819096991,-16.575612709729555
-2.55948511,-23.03536599,4.596385397669549,-0.7455337400766283,0.0,0.0,225,9,375.28157742173937,1038.78242,mp-628606,Rb2PdI6,https://materialsproject.org/materials/mp-628606,2.410266064510518,11.674662163874945,-32.12721459450922,-69.64209998017975
-5.773650811,-57.73650811,5.2471031943727855,-1.5855280401562508,0.0,0.038000000000000256,194,10,294.58782009665606,930.862,mp-1079300,BaZrSe3,https://materialsproject.org/materials/mp-1079300,-2.586410758914852,14.038416652768898,8.603035685523809,-54.710154750600125
-7.1342119165625,-228.29478133,4.346395334562812,-2.283664049101564,0.0,1.2272999999999996,62,32,656.1485090158675,1717.4428,mp-1197050,Y2ZrS5,https://materialsproject.org/materials/mp-1197050,13.857570506923926,-6.000301715384773,-0.2963527109012239,-12.545679017824554
-4.596121352,-91.92242704,5.068976878145652,-1.2439505570949998,0.0,1.2471,2,20,619.0847889724025,1889.82397,mp-1228711,Ba10IBr4N5,https://materialsproject.org/materials/mp-1228711,0.15316628311707794,-27.50726241094423,3.7051874142949486,-58.62152742137088
-6.1976696971875,-396.65086062,3.3326120740950014,-2.0466276342178125,0.0,5.485600000000002,14,64,706.3581615172293,1417.6226399999996,mp-774927,NdH4S2NO8,https://materialsproject.org/materials/mp-774927,-34.223856246888054,-25.33949900656021,-31.178505062114397,-33.444066892573325
-2.9480710825,-200.46883361,4.179314815588588,-0.8559873332724367,0.0,1.7985,205,68,1785.5549706826614,4493.960192000001,mp-23476,Cd7(P2Cl3)2,https://materialsproject.org/materials/mp-23476,-0.9844738392942668,-1.8702793804435358,-18.80540579522111,-15.659927707654452
-6.699985506785715,-187.59959419,3.850848935925044,-2.7945863515000005,0.0,3.9789999999999996,62,28,502.56135113745046,1165.4576,mp-18892,KBaVO4,https://materialsproject.org/materials/mp-18892,-28.698108162041937,-25.65776797972088,-19.638243270299927,-12.274386353160105
-5.284914276666666,-63.41897132,6.317080615109206,-1.0372545956091357,2.00000005,0.0005999999999999339,63,12,376.25571262766664,1431.3651238,mp-510662,CsUAgSe3,https://materialsproject.org/materials/mp-510662,10.139985362980592,0.4898099799890666,-2.3188889128238848,-19.938940776892657
-5.528134385,-154.78776278,5.605552250799684,-2.0735288694642864,2.5e-07,2.3854999999999995,62,28,644.1285092881578,2174.4120000000007,mp-18332,Lu2ZnS4,https://materialsproject.org/materials/mp-18332,4.793952288246078,-0.9867120583519232,-12.165441169019955,-14.736692214579445
-4.261005522,-21.30502761,3.2523800132085436,-0.9800159524374996,3.43e-05,0.0,38,5,130.1844262714607,254.983,mp-866894,CaSnS3,https://materialsproject.org/materials/mp-866894,2.824096858090199,-6.809318410412988,-9.568520057889092,-17.38851893467922
-3.311250401333333,-99.33751204,4.877756047513387,-0.0938804524895834,0.0,1.0589,166,30,872.859062451423,2563.9828199999997,mp-29450,CuSe3I,https://materialsproject.org/materials/mp-29450,-5.834214306729704,-1.3611948967842125,-29.710792403025447,-38.50238627180222
-3.5424388505000004,-70.84877701,2.7059521346226143,-1.1137036077380005,0.0,2.1752,14,20,362.5079757416261,590.7294,mp-569085,Li6Br3N,https://materialsproject.org/materials/mp-569085,-7.836106123457781,-16.363130449217913,-30.54448731372653,-57.83185331040332
-4.912035981428573,-68.76850374,3.135529319573374,-1.0733922469642858,2.0,0.3136,2,14,246.81559691981386,466.05199999999996,mp-1208821,SrZnO5,https://materialsproject.org/materials/mp-1208821,-42.262318759693215,-14.304771109018107,-33.17540069382949,-27.494704034656838
-3.7659631953125,-120.51082225,4.093830687572805,-0.6354055399110994,0.0,1.5081000000000002,14,32,1186.8341507888604,2925.9764152,mp-581864,CsAsSe2,https://materialsproject.org/materials/mp-581864,-7.901936944923652,-5.987573288141715,-29.537021419779478,-47.240544373061546
-2.316688130625,-37.06701009,4.003823402684349,-0.9260573021767238,1.475e-06,1.9773,62,16,774.0981343108014,1866.4735675999998,mp-27662,CsI2Br,https://materialsproject.org/materials/mp-27662,-7.00985980786438,-13.143961715224846,-38.04881113977356,-12.914224553681825
-3.450798941428572,-48.31118518,5.6332341604769365,-0.5398777022916671,9.699999999999999e-06,0.4579000000000004,227,14,387.8578508499239,1315.774,mp-22587,Cd(InSe2)2,https://materialsproject.org/materials/mp-22587,23.3119897409474,3.5328015636379613,8.352008474897126,2.2488461339181955
-5.220633497777778,-46.98570148,5.294293761690955,-3.390435676348889,1.0000006,0.0,139,9,141.82814146598096,452.1904192,mp-554352,Ba2CuF6,https://materialsproject.org/materials/mp-554352,-12.111991284434266,-22.08352533938186,-1.335265440748473,-7.4556372041777506
-3.480318271428572,-48.724455799999994,2.183959886143465,-2.152240854577143,0.0,4.9037000000000015,55,14,322.52843540058456,424.19307712,mp-28657,Na2MgCl4,https://materialsproject.org/materials/mp-28657,-17.676717833069848,14.36803022835152,-9.009632568062116,-21.562983663752767
-6.49497450475,-259.79898019,6.435406122211679,-2.109199516187501,3.000004425,0.28610000000000024,58,40,775.3221405982239,3004.75492,mp-1208101,Tm3CrS6,https://materialsproject.org/materials/mp-1208101,12.941659954700029,-3.5638232530625533,-4.463159096544357,-17.510582074966155
-6.6099334525,-26.43973381,6.911122121119836,-0.006657672500000267,1.43665225,0.0,194,4,82.99016512533925,345.403,mp-7821,VSb,https://materialsproject.org/materials/mp-7821,25.87126695237985,22.27965258405437,57.21657427003352,-23.62580622875463
-4.587235191666666,-137.61705575,3.3290283034129033,-1.3062456221041672,2.8633333333333332e-05,0.6550999999999996,4,30,763.1221860185022,1529.898,mp-866504,CaSnS3,https://materialsproject.org/materials/mp-866504,2.4693283995750788,-6.355936898206463,-22.267003788588877,-34.679356936516896
-3.645955415357143,-204.17350326,3.8402723168670674,-0.4708795326428569,0.0,1.0329000000000002,14,56,1530.380553604528,3539.2592,mp-15432,K2Ga2As3,https://materialsproject.org/materials/mp-15432,-0.8755913278306207,1.9939159726046205,-37.887472807252045,-42.21551617255216
-2.261923086285714,-79.16730802,5.408251336947299,-0.5442410002857141,0.0053652000000000005,0.8558,12,35,1247.6591360329833,4063.5324,mp-669455,Ga4Hg11(AsBr4)4,https://materialsproject.org/materials/mp-669455,-7.797819515912487,-0.3073349918437174,-32.576343677829236,-46.1749759742958
-6.467653344285713,-90.54714682,3.4145268778412627,0.1132552579360718,4.973251599999999,1.7464,82,14,328.47613116967295,675.437645,mp-543031,MnHgC4(SeN)4,https://materialsproject.org/materials/mp-543031,-2.128131977079025,6.281492233269399,-35.985194631805875,-29.30662274108605
-6.65023009,-26.60092036,4.590395779213436,-3.02779103075,0.0,3.8889,166,4,75.96675379591898,210.00257000000002,mp-7958,KLaO2,https://materialsproject.org/materials/mp-7958,3.6122717247277003,-59.121406700121135,7.300135485497345,-57.61964020592705
-6.945731642666668,-416.74389856,3.4451983263597263,-3.4384804274419998,7.9e-06,3.6404,122,60,969.7897519625552,2012.0683404,mp-1218648,Sr6Al7ClO16,https://materialsproject.org/materials/mp-1218648,-22.16170176416885,-34.77509636245637,2.490925963608573,-41.74550652715787
-4.931230029393941,-162.73059097,9.59561953627208,-0.2284298739393943,0.0,0.0,2,33,829.3252165615537,4792.353,mp-32682,Te8Ir3,https://materialsproject.org/materials/mp-32682,28.904749110201035,25.751933029124604,38.158406578958314,-24.57941394202839
-4.8483823575,-19.39352943,5.4164830693133625,-0.825899791666667,0.982816,0.0,164,4,95.03960044272371,310.008,mp-10189,LiTiTe2,https://materialsproject.org/materials/mp-10189,19.081628731601885,8.356066023361883,28.628846723662647,-39.34526141315571
-5.587293364375,-89.39669383,6.328349605080148,-1.698793823906251,0.0,1.7001,62,16,317.65028675362214,1210.572,mp-12457,LuCuS2,https://materialsproject.org/materials/mp-12457,16.187917013979398,-12.999932322283065,-10.321785895526089,-16.792308401577767
-4.522945922222221,-81.4130266,3.5350558295095964,-0.9568950638888888,0.0,1.1162000000000003,15,18,445.19920038191503,947.7669544,mp-1205338,Ca3(AlAs2)2,https://materialsproject.org/materials/mp-1205338,22.4878118191825,-7.927101261834818,15.342861171810307,5.1855283920174315
-5.2604751791176465,-178.85615609,8.472947866725592,-0.3867859591176471,7.95e-06,0.0,2,34,782.4898886309649,3992.677,mp-1217447,Te10Rh7,https://materialsproject.org/materials/mp-1217447,29.017987086160986,23.711245477301016,26.101289813639358,-44.00251146437816
-9.2416565025,-295.73300808,6.5490784995708635,-2.3112643037890632,13.999981775,0.9802,62,32,662.6001279347537,2613.26,mp-1195809,Gd2HfS5,https://materialsproject.org/materials/mp-1195809,13.820677227611794,-6.113327740085343,-0.5208268575152144,-12.331779311018705
-7.7525709,-31.0102836,4.308812116479067,-2.1649091131562503,7.000000200000001,1.7619999999999998,166,4,94.17573361653541,244.36976928,mp-8260,NaGdS2,https://materialsproject.org/materials/mp-8260,14.512450377355403,6.665070357346576,-25.54103690953617,-76.64702157049966
-3.396434508,-16.98217254,5.853670581043903,-0.6432483480000002,1.3e-06,0.0,139,5,118.57273393672071,417.9882,mp-570198,Ba(ZnAs)2,https://materialsproject.org/materials/mp-570198,19.336901883317854,-37.288620100238866,20.031394656975213,-41.48138795385933
-7.440886563114755,-453.89408035,7.278770020656349,-2.3585938835041,0.0,0.9283,12,61,775.6890071213428,3400.138,mp-866741,LiNd9Mo16O35,https://materialsproject.org/materials/mp-866741,12.431875894763575,-17.22174148949583,3.0832785834082106,-21.441012986605045
-7.912406886666666,-47.47444132,6.173753511267765,-0.1697484620833324,0.0001182,0.0,12,6,93.0287624648277,345.87362,mp-1222729,LaTbC4,https://materialsproject.org/materials/mp-1222729,4.26236846365951,-57.17872638656457,-19.76904263286217,-67.67701116801906
-8.974134200833333,-107.68961041,5.864249018540144,-3.4819470066666667,0.9999998,0.0,88,12,168.2102076125002,594.03996,mp-557564,CeNbO4,https://materialsproject.org/materials/mp-557564,-21.73670393143661,-66.85939265610955,-9.17430443151216,-66.21891246626862
-6.055743587857143,-84.78041023,3.6645147252914767,-2.0464194066071437,0.0,0.6698,227,14,336.6656985707501,742.9614,mp-1001015,Y2ZnS4,https://materialsproject.org/materials/mp-1001015,10.863059858134719,12.652696563704955,-20.928177806598303,-75.4613360738539
-3.214462564444444,-57.86032616,4.176055725066062,-0.11161115527777772,1.0,0.4172,9,18,708.9211163449157,1782.85124,mp-1179242,Tc(I3O)2,https://materialsproject.org/materials/mp-1179242,-1.948101879788836,-6.31044457056603,-33.43282638529701,-30.93600197061007
-4.681601708333333,-56.17922049999999,7.6909976191742935,-0.4166058478645833,0.0,0.0,198,12,265.2545149534739,1228.56,mp-4368,SbPdSe,https://materialsproject.org/materials/mp-4368,26.79623092152245,25.73120868515641,38.26511186651154,-24.219550561065297
-7.995509944722221,-287.83835801,3.9638434472237165,0.10377284999722274,0.0,3.8179000000000007,7,36,261.20749370017074,623.5238,mp-1245820,SrC7N10,https://materialsproject.org/materials/mp-1245820,-26.79264239495345,-38.807240949322576,54.960107033023846,-4.285410499713877
-3.775128333333333,-11.325385,2.9892898584746943,-0.11266161012666664,0.048446300000000005,0.0,160,3,105.78424489976801,190.43200000000002,mp-1247556,KBaN,https://materialsproject.org/materials/mp-1247556,-5.028801361094066,-18.935940507553774,-19.989701981480643,-16.699750753141643
-4.69829291,-37.58634328,2.948371593125509,-1.8596857875,3.2e-06,2.9452000000000003,194,8,370.1587482651036,657.2357,mp-865605,YBr3,https://materialsproject.org/materials/mp-865605,-2.8476597408554096,5.769212793569242,12.235131179094136,-9.340492090260637
-5.568892449868422,-423.23582619,6.730182733415946,-1.834104801486219,7.8475e-05,1.5853,64,76,2197.1167000968744,8904.937807600001,mp-1203743,CsLu7Se11,https://materialsproject.org/materials/mp-1203743,23.77498791300295,4.427477158165465,11.921975522508685,4.2834879393309935
-3.884030885,-15.53612354,5.722899108912345,-0.4128166686979169,0.0,0.1059000000000001,123,4,85.23598793843409,293.7582,mp-1229010,AgSbS2,https://materialsproject.org/materials/mp-1229010,23.077295408843828,9.682900475889571,32.461940726136305,-39.295915091510345
-4.0950460725,-16.38018429,6.876966835779379,-1.273458946197917,0.943992,0.0,166,4,83.31425977080409,345.0382,mp-1215482,YbAgS2,https://materialsproject.org/materials/mp-1215482,18.79857728787332,9.96634310352174,28.217739080618294,-40.66449874773181
-7.970500451111111,-71.73450406,5.425512689104068,-3.1222552104166663,1.530435,0.0,123,9,165.1579805021026,539.6239999999998,mp-1186702,Pr2Y2O5,https://materialsproject.org/materials/mp-1186702,-18.865488547835046,-67.85889582422864,-7.9959318687669185,-67.44107211433598
-5.458565105,-21.83426042,4.222575593050046,-2.0702753976562502,0.0,0.2412000000000001,123,4,87.07832744816463,221.43099999999998,mp-1222274,LiSmS2,https://materialsproject.org/materials/mp-1222274,14.36454348283406,8.766445230402555,-31.328708456959266,-73.08821445506565
-5.598342459642856,-313.50717774,3.6769611491622687,-1.6749180223214275,3.0040511000000003,0.5083,61,56,876.2557942146381,1940.3088,mp-1197698,SrAsO5,https://materialsproject.org/materials/mp-1197698,-50.424320794264624,-49.41672887723411,-27.43521172412355,-51.590890931994
-4.728090065795455,-416.07192579,2.4753338499869737,-0.3273248235599999,1e-07,1.7327,62,88,1183.214399680632,1763.79512,mp-1202278,Cu2H12C4Br3N,https://materialsproject.org/materials/mp-1202278,-10.32123596284278,1.4913438367711618,-38.53586377456961,-44.00877494224533
-4.09167239,-49.10006868,2.303884349552181,0.05998404000000039,6.4275e-05,0.0,166,12,232.0143193108024,321.904,mp-1073501,MgSi2,https://materialsproject.org/materials/mp-1073501,22.869389472995234,23.82832568439555,23.533841904412608,-45.567220423149436
-6.663822061666666,-279.88052659,6.3795616206090955,-0.42686877844827453,0.0,0.0,148,42,1252.138148374731,4810.541807600001,mp-581150,Cs2Te10Mo9,https://materialsproject.org/materials/mp-581150,20.61699579780416,5.022864468875731,14.327186370141499,-9.329375810760057
-4.147223801428572,-58.06113322,4.910196934510524,-0.8919429270833332,5.7999999999999995e-06,0.16420000000000012,216,14,302.38724956522566,894.1560000000002,mp-674514,In5CuS8,https://materialsproject.org/materials/mp-674514,3.982884615935745,27.8587801991415,-20.526470818111136,-77.95934042530837
-5.379913268999999,-53.79913269,3.20223111291912,-3.5799895570829654,0.0,6.5168,87,10,191.33724496770924,368.98023119999993,mp-9348,KRb2ScF6,https://materialsproject.org/materials/mp-9348,-29.845965764339255,-21.013388938481352,-60.92169364169926,-65.37895543123761
-5.896234455,-82.54728237,4.805564904231646,-1.9416653316071435,2.9999802000000004,0.5478000000000001,166,14,319.9646713862636,925.971,mp-1246739,Lu3Mg2MoS8,https://materialsproject.org/materials/mp-1246739,1.8361372804971672,25.067054162082737,-23.161116617170162,-79.48242809376973
-3.2059082633333333,-9.61772479,5.135504717785887,-0.04934611291666672,6.1e-06,0.0,123,3,49.988080230943936,154.5968,mp-1097889,NiBrO,https://materialsproject.org/materials/mp-1097889,20.7850902893062,7.161263232856338,4.747174803581629,-9.930622389381933
-4.0452395725,-16.18095829,4.308703125590471,0.04402774142857169,2e-07,0.0,160,4,95.1912164679875,246.998524,mp-1226745,CdGeP2,https://materialsproject.org/materials/mp-1226745,-0.1630398899575817,9.82730371245337,-16.862012147585705,-71.9357681229299
-4.220824986666667,-37.98742488,5.411308347142253,-0.7449134751987548,0.0,1.0576,69,9,276.45767554747266,900.9109038,mp-11694,Cs2Pd3Se4,https://materialsproject.org/materials/mp-11694,-8.689216566764966,-0.4896950097763577,-24.9333890632644,-44.50418422929339
-3.807583231428571,-53.30616524,5.044165422869818,-1.0500339407876191,0.0,1.464,4,14,249.9645251299789,759.3091063999998,mp-690687,Ag2H2IOF,https://materialsproject.org/materials/mp-690687,-3.3644471531986078,7.713264002913737,-12.302642584765561,-6.257088426095523
-5.220690945,-73.08967323,5.1634172925296165,-3.220582569422636,6.0,3.1259,160,14,223.96377621352843,696.4114707,mp-1225929,CsBa2Co2F9,https://materialsproject.org/materials/mp-1225929,-10.890687330513764,-81.87409674712981,15.9572674312819,-72.44128107966621
-3.1681673759090914,-69.69968227,4.497383844052574,-0.2775169095454544,0.0,0.7654000000000001,2,22,1007.7826738231314,2729.4664,mp-570873,Nb(Te2I3)2,https://materialsproject.org/materials/mp-570873,13.604554803589853,1.3655245553407571,-15.213539251960919,-5.629426804244063
-5.857136877857143,-81.99991629,4.216633400366584,-2.0973170735119058,0.9999998,0.0,166,14,330.9934606554942,840.497,mp-1246597,Dy3Mg2TiS8,https://materialsproject.org/materials/mp-1246597,12.610838515800419,8.132320865056768,-23.783580445948893,-78.76242201856452
-3.2568062765384616,-84.67696319,4.297142635428746,-0.6724015830636603,0.0,1.1354000000000002,15,26,1284.6757250656485,3324.4836152,mp-505014,Cs4Sn2Te7,https://materialsproject.org/materials/mp-505014,2.271995317621045,-3.4782876505265787,-18.96325827751322,-13.651606661872506
-4.748938193571429,-199.45540413,4.908556287334582,-1.0364736474829932,0.7019082,0.0,64,42,1593.3551812021824,4709.9606840000015,mp-1207461,Zr6PI14,https://materialsproject.org/materials/mp-1207461,10.277854757125453,7.992372585440314,-6.075939680092782,-5.310852159352879
-5.318857538775512,-521.2480388,3.8974320247627814,-3.3451097876420417,30.0020223,3.4149000000000003,1,98,1378.8353291295386,3236.24849472,mp-697817,Na2Sr6ZnFe6F34,https://materialsproject.org/materials/mp-697817,-14.861544977560296,-24.57352291190677,-15.737242183277164,-18.327151588852235
-7.146890946956521,-657.51396712,3.040547209291484,-3.30029294202174,0.0,5.2804,161,92,1189.3707699562824,2177.809668,mp-9468,KCa9Mg(PO4)7,https://materialsproject.org/materials/mp-9468,-18.550102754943442,24.130503036900635,-12.721101763935733,15.357566366705385