energy_per_atom,energy,density,formation_energy_per_atom,total_magnetization,band_gap,sgr,num_sites,cell_volume,weight,mp_id,formula,URL,tsne_cry_0,tsne_cry_1,tsne_xrd_0,tsne_xrd_1
-1.9727964775,-7.89118591,6.86670850317428,0.13751019249999996,4.8e-06,0.0,139,4,65.0186548418784,268.867,mp-971928,Zn3Ge,https://materialsproject.org/materials/mp-971928,67.95024332426064,59.27614415843217,87.75426768590876,19.005296855460102
-8.758857093333333,-52.55314256,11.099570024938137,-0.4205334230555546,2e-07,0.0,191,6,63.90868108396657,427.18591,mp-10065,UFe3B2,https://materialsproject.org/materials/mp-10065,51.5311050110236,18.20936546861619,68.10622836291776,19.193172189707244
-9.692935714848483,-319.86687859,5.617822720045477,-0.5472448106439398,1.3333333333333334e-07,0.0,151,33,324.28752661174263,1097.1075,mp-28731,V6C5,https://materialsproject.org/materials/mp-28731,29.810001405004797,59.645862112867775,82.89259112506126,21.884306899875835
-4.973241923333333,-14.91972577,4.6524569602864245,1.5386256439999997,3.9418849000000002,0.0,216,3,69.63668994463154,195.106345,mp-631254,KMnRu,https://materialsproject.org/materials/mp-631254,85.94224188399258,0.3040334540921765,64.87527858879139,45.82152879501086
-4.5941004025,-55.12920483,8.295582420245072,-0.6072274491666665,5e-08,0.005599999999999382,62,12,189.87866586908862,948.58,mp-12741,MgPd2,https://materialsproject.org/materials/mp-12741,50.73220140928382,38.49221407970767,72.5742044276208,13.807178084159641
-5.90942986875,-141.82631685,4.682092468557028,-1.2442306841666677,6.9962728,0.0,8,24,252.52142874100392,712.0149849999999,mp-771307,Fe5Co3O16,https://materialsproject.org/materials/mp-771307,0.4674173781016022,72.24749059920812,2.4863579984935966,58.31729310559927
-6.045852239642858,-338.56772542,5.351342223727112,-1.7110155721428566,8.999999800000001,0.02059999999999995,160,56,544.0350366674877,1753.236505,mp-767791,Mg5Co19O32,https://materialsproject.org/materials/mp-767791,1.5645728579122251,66.51124405456032,11.453486971004525,53.8210710940391
-5.41911198125,-43.35289585,6.183082268815372,-0.3487877525000007,1.6e-06,0.010200000000000207,115,8,127.81559306876647,475.9263758,mp-1220675,Nb2(AlGa)3,https://materialsproject.org/materials/mp-1220675,50.572551389450396,38.42960550999896,78.09173450650988,15.291220787606909
-5.800731778571429,-81.2102449,5.324778966584895,-1.5797745769600016,2.9999998,0.33919999999999995,160,14,134.90722331556591,432.6011782,mp-759572,LiCo5O7F,https://materialsproject.org/materials/mp-759572,1.505645584545421,65.4745081270541,11.194285506100716,53.66827265149958
-9.121401910555557,-164.18523439,10.077673517222822,-0.39136336555555495,5.888888888888888e-06,0.0,10,18,290.3824415546854,1762.30692,mp-567345,NbRh,https://materialsproject.org/materials/mp-567345,67.71865425848368,59.73230705528674,88.2162101681358,18.558218408134067
-5.9740821028571425,-41.81857472,7.933718538121499,-0.6900184283035722,0.0002918,0.0,166,7,127.729682264995,610.2665,mp-1078054,Sn2Rh3S2,https://materialsproject.org/materials/mp-1078054,51.960554645327775,18.789682717651246,49.520150837088,5.523580256794291
-9.445074622,-47.22537311,9.774538443211751,-0.3308640417500001,2e-07,0.0,221,5,69.04850759677623,406.4447,mp-10706,ZrRu3C,https://materialsproject.org/materials/mp-10706,52.48666674838538,30.786608175251192,56.057576294025175,41.535743557944045
-5.5433979566666665,-33.26038774,11.658020566689956,-0.3780493816666664,0.026431700000000002,0.0,216,6,84.6420705913085,594.2401689999998,mp-1077279,DyNi4Au,https://materialsproject.org/materials/mp-1077279,70.98949568273915,49.02104682839703,72.21222040040631,22.75452125194213
-9.86249041,-59.17494246,11.986836337682664,0.4357777116666668,1.85e-05,0.0,194,6,58.245971778108675,420.4568,mp-1019054,ReC2,https://materialsproject.org/materials/mp-1019054,49.65022747028854,18.28940571794157,48.64341089696742,-1.3446715350223517
-6.39449169,-25.57796676,10.591279801083818,-0.8064893949999998,0.0001284,0.0,225,4,68.11610357930478,434.45935,mp-977421,TbGaRh2,https://materialsproject.org/materials/mp-977421,96.16380296294571,8.444567833813185,62.92511114419122,65.18560954934115
-8.540248738333334,-102.48298486,12.308426457306169,-0.3237407974999999,3.5018897000000004,0.0,160,12,160.258245351795,1187.88344,mp-1224459,Hf3TaCo8,https://materialsproject.org/materials/mp-1224459,70.10401536985333,49.945687498457254,72.6321400752927,21.921484861820243
-5.50867488,-176.27759616,4.283778810730071,-1.7134762146874998,21.999999300000002,0.0,2,32,283.35738546083667,730.991765,mp-1175519,Li9Co7O16,https://materialsproject.org/materials/mp-1175519,11.739921788291865,86.23363452681205,8.242006211566006,95.60794892823691
-10.644617731363637,-234.18159009,12.516586974692943,1.2108394086363654,0.0003356227272727273,0.0,136,22,528.1281894305966,3980.85336,mp-697196,Ta,https://materialsproject.org/materials/mp-697196,63.28731476502398,22.896625503730586,69.15558003827053,16.464443579348636
-5.986254275,-11.97250855,12.486960724143211,0.4689084700000006,3.1917901,0.0,166,2,33.107514351172426,248.962669,mp-1226221,CrAu,https://materialsproject.org/materials/mp-1226221,51.73661747992939,18.013948797521113,68.17798353183724,19.220881497756025
-4.925682664583333,-118.21638395,5.088962978057267,-1.259773503958333,1.9962638,0.0,5,24,215.95145912449138,661.8145999999998,mp-770841,Li5Cu5(NiO6)2,https://materialsproject.org/materials/mp-770841,19.443350539260248,53.27820571644969,2.821800886685062,50.07037678951361
-7.9050232675,-31.62009307,12.760333431678625,-0.9280451408333334,2.655e-05,0.0,51,4,63.23183049519556,485.902,mp-998949,TiPt,https://materialsproject.org/materials/mp-998949,51.154235324323594,39.19748342258958,76.20489047029913,15.205349303668775
-7.096204315,-28.38481726,19.557735283751946,0.4770338350000012,0.0007326,0.0,139,4,66.55244935871424,783.8510000000001,mp-1184797,Ir3Pb,https://materialsproject.org/materials/mp-1184797,69.00330224048665,57.07892220623682,57.507277923142645,41.27198717432199
-5.8004855375,-23.20194215,10.647843444990796,-0.65744889625,9.5e-06,0.0,225,4,67.6389539487094,433.72,mp-865257,DyZnRh2,https://materialsproject.org/materials/mp-865257,96.09085338550938,8.686650710552271,62.498509340357934,65.22146844330132
-1.3953813183333337,-8.37228791,5.040142284907211,-0.012051781666666686,1e-07,0.0,189,6,102.21449433015844,310.2460000000001,mp-1094463,MgZn2,https://materialsproject.org/materials/mp-1094463,47.51459450336879,32.968734770364264,80.53028686768306,19.69187752247217
-6.575691161666667,-39.45414697,2.2502875964329423,-0.7145350356944449,5.795e-05,0.0,164,6,55.523394910484846,75.2428,mp-614006,B2O,https://materialsproject.org/materials/mp-614006,31.80251779443909,64.16188985225466,58.71820175270491,31.933664445617772
-10.9879096375,-43.95163855,19.75554179816733,-0.08683449125000031,0.0264315,0.0,221,4,62.971830927087325,749.18,mp-1007693,HfOs3,https://materialsproject.org/materials/mp-1007693,67.72509222181914,62.39328280571647,88.89077490422285,17.856359946869627
-7.58779232375,-60.70233859,18.17530615789386,0.06242720500000142,1.1e-06,0.0,194,8,127.0596574673868,1390.7220000000002,mp-1187093,SnIr3,https://materialsproject.org/materials/mp-1187093,61.66671048387779,56.69991758457461,82.65826393942842,16.48094479042117
-9.65574322375,-77.24594579,12.910260937336806,-0.21767193124999906,7.63e-05,0.0,194,8,123.9140958421253,963.4,mp-975921,HfRu3,https://materialsproject.org/materials/mp-975921,60.704941266555316,56.9093999581526,81.8370427643341,14.495284619618
-6.3513138125,-50.8105105,11.181781514668117,-0.15314578833333406,2.25e-06,0.0,194,8,125.79311643932694,847.069,mp-1184791,InRh3,https://materialsproject.org/materials/mp-1184791,67.29144833364822,60.71648396124814,88.06092376156897,18.51106956813237
-3.89119945375,-31.12959563,9.397324822526024,0.34526344374999995,2.9618716,0.0,194,8,134.10005217697986,758.8992000000002,mp-1184294,FeAg3,https://materialsproject.org/materials/mp-1184294,61.229914201768935,53.58520981495597,56.94627478792707,37.93651721421832
-5.846482695,-46.77186156,4.467254773451289,-1.8515368943749992,1.8091642,0.0,119,8,70.09368575720393,188.5691,mp-754910,Li2CrNiO4,https://materialsproject.org/materials/mp-754910,13.777716305158785,77.87946798903431,8.661459713442875,75.2409332732099
-6.01296526375,-96.20744422,3.9349475140818972,-2.04146668012,8.0000007,0.8727,12,16,139.89626037012937,331.5094850000001,mp-1173973,Li5Mn2CoO8,https://materialsproject.org/materials/mp-1173973,5.990574645001452,86.59404218974012,-4.9882590502583675,94.37300339135288
-5.705252815833332,-68.46303379,4.658815544275606,-1.142311241666666,1.00000005,0.5127,87,12,129.6433621357834,363.72798,mvc-14149,CoO2,https://materialsproject.org/materials/mvc-14149,1.6520003238307381,72.00044989864193,2.642502227693352,56.1177904240616
-2.7383968875,-10.95358755,7.955008350271854,-0.13989854499999987,0.00031180000000000004,0.0,221,4,68.99852886785045,330.5456,mp-1185300,LiAg3,https://materialsproject.org/materials/mp-1185300,48.23941745647314,35.91783786639241,57.34324122048292,34.3665179389464
-6.016603098125,-96.26564957,3.944021781171841,-2.045104514495,8.0000008,0.7054,1,16,139.57439195714466,331.5094850000001,mp-1174383,Li5Mn2CoO8,https://materialsproject.org/materials/mp-1174383,6.4969696404823125,86.21576753428384,-4.993311266912621,94.52548015202707
-5.511803603214285,-154.33050089,4.252961197140942,-1.7314621775892856,9.00000025,0.7060999999999997,2,28,247.19680848452862,633.11877,mp-1174239,Li4Co3O7,https://materialsproject.org/materials/mp-1174239,10.545969058819873,85.94039573409442,8.598207981512626,95.05293585462006
-6.500583095,-26.00233238,10.028184945571864,-0.6426947941666672,1.24e-05,0.0,221,4,60.79153101452056,367.12699999999995,mp-636328,TiPd3,https://materialsproject.org/materials/mp-636328,58.98947739875018,56.454406211508214,82.1645383550082,13.588359623688984
-8.2853803975,-33.14152159,9.566966263391363,0.17958360375000024,5.9e-06,0.0,221,4,61.30998358430873,353.22900000000004,mp-977997,ZnMo3,https://materialsproject.org/materials/mp-977997,59.9549341614681,56.60423378919693,85.25507640480535,15.618327588416836
-8.758562805,-35.03425122,13.104403495332615,-0.7598024125000009,6e-07,0.0,221,4,61.7369126400839,487.2065,mp-1027,HfRh3,https://materialsproject.org/materials/mp-1027,60.4803573883444,56.99020646223246,82.18042955337566,14.154921583851495
-7.841457663125,-125.46332261,4.869929235721202,-0.3939345605650004,6.8775e-05,0.0,14,16,152.68165695416099,447.7756,mp-1245541,FeSiN2,https://materialsproject.org/materials/mp-1245541,24.79454433835401,52.753048263968104,50.781916997027004,4.58497547095088
-5.80514918875,-185.76477404,4.245971716633641,-1.869800225372499,20.000000600000003,0.7997999999999998,1,32,282.7555713351643,723.001465,mp-1175669,Li9Mn2Co5O16,https://materialsproject.org/materials/mp-1175669,9.773501106895186,87.12529967736496,8.80230841691472,96.28975118289327
-5.924549934,-88.86824901,4.316393192709024,-1.7904725899999998,6.9999999000000015,0.0,12,15,142.41679931685684,370.1972,mp-756976,Li3Cr2(NiO4)2,https://materialsproject.org/materials/mp-756976,12.855111763512447,78.60186580660815,17.338871242396436,82.60100447678738
-6.18377632,-24.73510528,9.436343819330848,-0.27248914000000024,3.45e-05,0.0,44,4,58.602697453278466,333.0215,mp-865611,MgRh3,https://materialsproject.org/materials/mp-865611,60.357430232736924,61.76011897516431,82.21627909538607,9.305468865184388
-8.1291130025,-32.51645201,10.681830730112651,0.32770922666666635,0.0005070000000000001,0.0,139,4,63.552612506860115,408.81800000000004,mp-985564,InTc3,https://materialsproject.org/materials/mp-985564,67.51069204836686,60.028817493105144,87.8021484913705,18.58327940234091
-4.2440411575,-16.97616463,4.987308220262829,0.5321151095833336,7.57e-05,0.0,139,4,63.968487771039584,192.1247,mp-978524,Si3Ag,https://materialsproject.org/materials/mp-978524,47.167030550323524,37.687804531967146,76.10124996389715,15.929629509435403
-6.8378704164,-683.78704164,2.5121806234678825,-2.8599125657750006,0.0,4.4429,1,100,826.6266361418789,1250.5791,mp-1244919,BeO,https://materialsproject.org/materials/mp-1244919,-34.96205280039166,43.63595328128602,-1.4877359215171206,55.8394564108396
-9.7582165475,-39.03286619,6.183169126188662,-1.2423777836899994,4.585e-05,0.0,194,4,34.88470700920537,129.8964,mp-1017532,VN,https://materialsproject.org/materials/mp-1017532,30.81661731422185,55.2057489833071,90.73228298827328,6.386145037631363
-6.9087483275,-110.53997324,8.022103234201571,-0.32226787374999954,1.03803915,0.0,193,16,293.83007154913554,1419.5,mp-1224532,Hf2(TiGa)3,https://materialsproject.org/materials/mp-1224532,52.43416782422604,17.582919586889652,50.11705150329525,4.872404674232962
-7.13825711,-99.93559954,2.596067892899657,-0.8100321455357137,0.0,1.9307,166,14,103.44887670501775,161.7308,mp-1346,B6O,https://materialsproject.org/materials/mp-1346,5.921806905184053,57.491523144109394,0.17150615456844104,54.409818137395725
-5.756771602000001,-28.78385801,8.707232674828482,-0.14895160914266653,3.4e-06,0.0,221,5,58.147807557843784,304.9049,mp-1070713,InNi3N,https://materialsproject.org/materials/mp-1070713,50.75531698973792,62.10579696375184,85.43250327771548,9.68580418594938
-6.012377559375,-96.19804095,3.928826916184751,-2.0408789757450005,7.9999977,0.8260000000000001,10,16,140.11420042585257,331.5094850000001,mp-1174134,Li5Mn2CoO8,https://materialsproject.org/materials/mp-1174134,5.855310018519107,86.67744711176907,-5.018019552203403,94.50794431453087
-2.87011632,-8.61034896,6.9974647560115715,0.17700796166666655,8e-07,0.0,216,3,70.64997375613251,297.717,mp-568800,CdCuSb,https://materialsproject.org/materials/mp-568800,86.29578707242935,0.4832507174187332,65.87663210459111,47.709154508892205
-7.422688732857143,-103.91764226,3.6408209164562337,-2.8689705469471423,0.0,4.091799999999999,166,14,130.3954559599939,285.8990316,mp-1228939,Al3NO3,https://materialsproject.org/materials/mp-1228939,2.557364617028134,62.30525504990643,8.374175819648908,52.37278713964164
-6.05503119875,-48.44024959,5.856072419255948,-0.3459233122266667,0.47137525,0.0,65,8,59.960075554783494,211.45576,mp-643945,TiFeH2,https://materialsproject.org/materials/mp-643945,32.11941098043639,57.3768434882232,79.88973101991459,3.610347453720628
-3.2820558225,-13.12822329,14.554204967107987,-0.3498464375000001,3e-07,0.0,139,4,68.20969169516681,597.8407070000002,mp-975909,LiAu3,https://materialsproject.org/materials/mp-975909,50.30934716704426,35.85623189929033,56.16826273947019,34.305090814023856
-5.752123235,-23.00849294,7.716843740281836,0.4305221837500008,0.8976599000000001,0.0,139,4,67.53755818248115,313.86,mp-1184671,Ge3Mo,https://materialsproject.org/materials/mp-1184671,62.185369219014,53.64112875808244,57.714363184761645,38.97708961849792
-5.79164422125,-185.33261508,4.235766572797709,-1.8562952578725,22.000001,0.3392999999999997,1,32,283.43680842089464,723.001465,mp-1175963,Li9Mn2Co5O16,https://materialsproject.org/materials/mp-1175963,11.796584448498725,86.23585534903238,8.095877928809095,95.52681939719305
-6.99952668125,-55.99621345,5.416551188988249,-0.31901400375000044,8.525e-05,0.0,194,8,130.79644881381677,426.648,mp-30672,Ti3Ga,https://materialsproject.org/materials/mp-30672,60.66805503026991,53.712993033450935,80.77052721728876,18.326989743886923
-5.482880758333334,-131.5891382,4.209125777121724,-1.7223489856250005,15.9999995,0.0,2,24,211.15940754574726,535.245775,mp-1174265,Li7Co5O12,https://materialsproject.org/materials/mp-1174265,9.398016670320956,86.5851278986095,9.4434545189776,96.30376161375784
-5.7888600871875,-185.24352279,4.276104847718722,-1.8535111238099988,13.999999599999999,0.24239999999999995,1,32,280.7630311614534,723.001465,mp-1175710,Li9Mn2Co5O16,https://materialsproject.org/materials/mp-1175710,19.144988833061085,90.09650341981754,10.407318616789407,90.06909618001195
-6.76844135,-27.0737654,18.61637676695189,-1.0943524699999996,5.0999999999999995e-06,0.0,221,4,67.80982917635971,760.2189999999998,mp-790,LuPt3,https://materialsproject.org/materials/mp-790,69.05676312167823,56.89037877969649,57.12945850998531,41.38826844022652
-6.492633067500001,-77.91159681,4.195480093823332,-1.4638154735733349,8.0000013,0.0,166,12,141.04272518202444,356.355335,mp-756513,Mn3CuO8,https://materialsproject.org/materials/mp-756513,6.756717597133108,70.50696031610359,16.02481802782284,83.7804027050391
-8.896648525,-71.1731882,5.689355370063399,-0.4925261793587498,0.000105,0.0,166,8,70.2835039259194,240.80604,mp-1216447,V4HC3,https://materialsproject.org/materials/mp-1216447,29.66143287645201,59.88725278777429,56.402228011316225,44.16098413462032
-7.7653573075,-93.18428769,11.10139771294185,-0.6539336033333344,0.0009449,0.0,194,12,167.8715358322572,1122.2914,mp-1224364,Hf2SiNi3,https://materialsproject.org/materials/mp-1224364,71.39295657694099,49.80019825227896,71.01550389544569,21.530498767383413
-5.79597610375,-46.36780883,18.712191290681037,-0.25775423500000016,5.13e-05,0.0,225,8,121.79963065935554,1372.529,mp-30765,LiPt7,https://materialsproject.org/materials/mp-30765,57.76133544905507,58.31069001455139,82.73976438465569,13.742730705519113
-5.7984047590625,-185.54895229,4.270367238695411,-1.863055795684999,13.9999997,0.5009000000000001,1,32,281.14026066209374,723.001465,mp-1176143,Li9Mn2Co5O16,https://materialsproject.org/materials/mp-1176143,18.402134311770112,88.26826253833366,10.556050995763377,91.52681254578955
-6.973079816,-34.86539908,8.769598832726075,0.11101569104800006,2.254571,0.0,12,5,56.008632947674855,295.791445,mp-1245932,Mn(PdN)2,https://materialsproject.org/materials/mp-1245932,25.30653833059041,50.49220152989655,74.05746149526253,8.89208221154793
-5.7995804728125,-185.58657513,4.2301692689530315,-1.8642315094349995,19.9999999,0.4113000000000002,1,32,283.81184824474775,723.001465,mp-1175917,Li9Mn2Co5O16,https://materialsproject.org/materials/mp-1175917,11.666917052474195,86.15201424138478,8.069182733547033,95.43654284816088
-4.4538149225,-17.81525969,5.060167559038973,-0.34820205000000026,1e-07,0.0,221,4,61.48536696077111,187.3646158,mp-1183127,Al3Pd,https://materialsproject.org/materials/mp-1183127,47.24029988928538,38.24217637709268,59.00162658213835,33.24515369224192
-4.703834826666667,-14.11150448,5.572063256619872,1.0766883933333322,1.13e-05,0.0,216,3,70.86034327591425,237.777195,mp-631506,SrZrCo,https://materialsproject.org/materials/mp-631506,86.39101193261091,0.4408945385119274,65.99074089153432,47.78857092378532
-9.25188405,-111.02260859999998,11.961645548693454,-0.161744889999999,0.001184575,0.0,38,12,161.94268691274226,1166.54952,mp-1218063,TaCrNi,https://materialsproject.org/materials/mp-1218063,70.24854953329246,49.99310423081508,72.00881868189326,19.666408514097988
-6.208016792083334,-595.96961204,3.679625827207768,-2.2048505058391665,42.872309,1.0094000000000003,1,96,836.8443353967477,1854.382195,mp-777734,Li32Mn11Cr5O48,https://materialsproject.org/materials/mp-777734,-11.216381811488498,100.36147667700196,-12.325806851452587,98.33369136487444
-9.51866574,-57.11199444,13.699603419433016,-0.11431308500000033,0.7120725,0.012299999999999756,227,6,84.77937430765141,699.43782,mp-21050,UFe2,https://materialsproject.org/materials/mp-21050,72.12812214801372,50.10690773685115,71.41511320974563,22.722731324717174
-6.32940118,-50.63520944,3.421325936536857,-2.4692336240299992,0.0,4.7215,26,8,58.23056932045879,119.97655719999999,mp-674463,AlHO2,https://materialsproject.org/materials/mp-674463,7.3302004780467245,61.39799921649478,8.434123079498589,49.466672229628884
-4.963549473125,-79.41679157,10.338510845471415,-0.3473060693750005,1.5e-06,0.0,47,16,253.83629900053532,1580.384,mp-1105163,CuSnPd2,https://materialsproject.org/materials/mp-1105163,61.778657076558964,56.37581305009532,82.46907325004496,17.164194192199105