energy_per_atom,energy,density,formation_energy_per_atom,total_magnetization,band_gap,sgr,num_sites,cell_volume,weight,mp_id,formula,URL,tsne_cry_0,tsne_cry_1,tsne_xrd_0,tsne_xrd_1
-7.393749122291666,-354.89995787,2.4301511915906544,-2.7676999397916666,0.0,2.5295,126,48,656.8962536080961,961.3488,mp-557017,SiO2,https://materialsproject.org/materials/mp-557017,-80.66774136772234,30.868481974074,-80.7487975334197,42.7348311158104
-6.100500028333332,-36.60300017,9.707310122269568,-0.13428676222222197,4.5128492,0.0,216,6,87.7628136900676,513.05078,mp-1024940,DyInCo4,https://materialsproject.org/materials/mp-1024940,70.65106039370643,47.33786329895354,73.5172234858765,24.44855227730587
-2.3192356,-4.6384712,4.157251835502812,0.3996112977500004,2e-07,0.0,187,2,34.56514758589141,86.53576928,mp-976292,NaCu,https://materialsproject.org/materials/mp-976292,47.44179870558351,32.71483134624013,81.14671950471961,19.492689886186355
-2.479346975,-19.8347758,9.417415579044556,-0.039635088749999436,2.36e-05,0.0,194,8,137.18673970985165,778.0272,mp-1187952,ZnAg3,https://materialsproject.org/materials/mp-1187952,52.33210384657324,31.073665977191208,56.48812852339469,38.19427536899225
-3.6312671435,-363.12671435,2.5002191883225056,0.11683603650000007,9.8198e-05,0.0,1,100,1791.9988140970795,2698.1538600000003,mp-1245067,Al,https://materialsproject.org/materials/mp-1245067,58.24361554306289,46.857070007594736,72.80601214657713,8.865175180935575
-3.577504763333333,-10.73251429,2.7337104420529874,0.7269359209375003,2.4829793999999996,0.0,5,3,181.03614988344376,298.036,mp-1080319,CeSe2,https://materialsproject.org/materials/mp-1080319,43.27073354976292,35.85701588108385,18.476136268342376,91.46515140889312
-7.67014087125,-61.36112697,7.6510543378648945,-0.013231122499999692,1.87382925,0.0,38,8,119.99289793767656,552.876,mp-1216897,V2FeSn,https://materialsproject.org/materials/mp-1216897,55.43335457160156,41.40720350261037,78.47340637337551,11.626715630722089
-6.916186929722223,-248.98272947,4.058018001085287,-1.7030864458222226,19.00000305,0.0,15,36,427.63643964839065,1045.05605,mp-776272,Mn5FeO12,https://materialsproject.org/materials/mp-776272,7.178880507816343,70.1722079005588,15.714166592751186,83.20707690219591
-6.665581084444443,-59.99022976,19.378404806254913,-0.2729325799999995,0.0011312999999999998,0.0,139,9,138.0994545679652,1611.6135,mp-1079997,VPt8,https://materialsproject.org/materials/mp-1079997,60.827074221963464,58.132342778823926,82.64796480993283,14.439304221943214
-8.10379738631579,-153.97215034,6.918298564752441,0.0012732811031571005,8.3053583,0.0,12,19,175.02281449950814,729.197,mp-1245751,Fe10NiN8,https://materialsproject.org/materials/mp-1245751,29.84362386040956,56.073297175933035,76.09004943588587,8.928003562311801
-3.837842188,-19.18921094,16.486141232768905,0.2030539840000003,0.0109776,0.0,166,5,85.29246236541434,846.7994709999998,mp-1226077,CoAu4,https://materialsproject.org/materials/mp-1226077,51.926987126462905,27.594353651123075,52.44612474673164,37.53286245611489
-9.6379689975,-38.55187599,5.949045032446295,-0.8038798852825,7e-07,0.0,166,4,35.70045381624588,127.9004,mp-1216616,V2CN,https://materialsproject.org/materials/mp-1216616,29.470372899571625,60.155234063464896,56.370364855498714,44.22781567056471
-5.5041256309375,-176.13202019,4.273885849783136,-1.7089269656249997,23.9999999,0.0,12,32,284.01328588656565,730.991765,mp-1175445,Li9Co7O16,https://materialsproject.org/materials/mp-1175445,10.701446778597507,87.10970646922476,7.973215333384252,95.87178633215952
-6.325203365,-25.30081346,5.936732401735357,0.1130168956900004,0.00014419999999999998,0.0,186,4,29.65108471858828,106.00808,mp-24669,CrH,https://materialsproject.org/materials/mp-24669,32.200843486124846,57.88240029858071,86.36489289569856,17.488850554241992
-11.236857895,-44.94743158,16.992372386764618,0.26036028000000044,0.0861826,0.0,221,4,59.65508166356985,610.4531949999998,mp-1183680,CoW3,https://materialsproject.org/materials/mp-1183680,57.83293318197495,58.581088653781535,83.5124726070946,10.910490972864256
-7.03127778,-28.12511112,5.24740041108628,-0.04485821749999985,8.599999999999999e-06,0.0,141,4,75.51094525750776,238.61900000000003,mp-1066771,ZrSi,https://materialsproject.org/materials/mp-1066771,46.61940926721855,35.878173033935106,70.10302986726695,25.07068234301878
-5.5488560125,-22.19542405,9.60650550195569,-0.36648880166666586,0.00014380000000000003,0.2113000000000005,225,4,76.01363094721809,439.75199999999995,mp-1185329,LiAcRh2,https://materialsproject.org/materials/mp-1185329,86.93545491187662,-2.7371032024138384,67.63811216257022,45.51024968166068
-9.973111735,-39.89244694,10.457260752802775,-0.21613604309500006,3e-07,0.0,187,4,48.9092853302416,308.0067,mp-1017987,Tc3N,https://materialsproject.org/materials/mp-1017987,64.44531137334431,59.65850511312217,84.68814749974787,16.450875913593357
-1.9192019388461536,-49.89925041,8.385961419776205,-0.047972518333333415,0.0,0.0,217,26,420.82482439052495,2125.226,mp-30361,Zn8Ag5,https://materialsproject.org/materials/mp-30361,58.32738434284946,48.943302298899276,76.80390931686398,6.826086225028348
-6.88801228,-27.55204912,13.58052809808264,-0.6316225625000005,0.4907651,0.0,225,4,73.49668325971743,601.084195,mp-1185467,Lu2CoIr,https://materialsproject.org/materials/mp-1185467,92.59591166229113,-7.079167528889029,72.67316624045066,50.282825571296165
-9.579130655833334,-229.89913574,9.201537913194397,-0.22606800372999916,6.0573122999999995,0.0,4,24,299.5262619109438,1659.7636,mp-1225027,Fe3Ni(Mo3N)2,https://materialsproject.org/materials/mp-1225027,63.0163256573625,41.66733326744613,74.86540207880539,5.833414290142704
-7.321385545172413,-424.64036162,3.1317140687873914,-3.3759857259741386,0.00161985,4.4125000000000005,8,58,627.5591892861106,1183.5529877600004,mp-676014,NaAl11O17,https://materialsproject.org/materials/mp-676014,3.100790540432106,61.84290485642645,7.936572062703156,52.757501592100525
-4.0857908725,-16.34316349,11.487709717074061,0.859514572120001,2.2899999999999998e-05,0.0,216,4,65.94622770654014,456.22,mp-631399,OsPtCl2,https://materialsproject.org/materials/mp-631399,88.7185123938959,15.855705323546704,47.68857920320946,62.80138126835702
-3.1173860325,-12.46954413,6.6976599254803935,-0.18848407541666656,1.4999999999999999e-05,0.0,221,4,60.51779590775322,244.094,mp-21289,TiZn3,https://materialsproject.org/materials/mp-21289,59.767856158489856,55.919143641607114,85.25038444085781,15.745821149710538
-2.82572168125,-22.60577345,2.8927123161922683,0.1572904574999998,2.8975827,0.0,38,8,149.46245797143382,260.36839999999995,mp-1099274,Mg6FeNi,https://materialsproject.org/materials/mp-1099274,46.52230866727335,33.66349657165522,49.263103522973566,33.58699007911229
-8.290806038333333,-99.48967246,9.230848667714149,0.0962131483333349,1.0058360999999998,0.0,186,12,161.77783941841258,899.3144500000002,mp-30770,LuMn5,https://materialsproject.org/materials/mp-30770,66.19235578313462,49.17163103831082,72.04337244112804,19.45825059552548
-3.6401940941666666,-43.68232913,7.0284878084382,-0.25161322750000004,0.0,0.0,140,12,215.01165048881333,910.07,mp-30660,Ga5Pd,https://materialsproject.org/materials/mp-30660,52.89764910604827,43.23724661268719,66.54609030872629,-4.263514816394979
-8.413708782999999,-84.13708783,3.4004261080797105,-0.7162145543686662,0.0,1.0138999999999996,160,10,60.20760484723605,123.2922,mp-1228638,B2CN2,https://materialsproject.org/materials/mp-1228638,31.96567843760669,64.41999098131504,87.7624588343018,13.580383746922564
-1.389866637222222,-25.01759947,4.924493353745735,-0.006537100555555576,1.7333333333333336e-06,0.0,155,18,313.8448311308899,930.738,mp-1094500,MgZn2,https://materialsproject.org/materials/mp-1094500,47.33994476542754,32.9053026414321,50.268624390853354,34.35620570597265
-9.0012131575,-36.00485263,8.160733817237768,-0.36033437750000097,0.2555385,0.0,225,4,69.05699124127348,339.381195,mp-864896,Zr2CoTc,https://materialsproject.org/materials/mp-864896,99.37223369794869,6.403501388794688,65.76880707556568,62.2248616866699
-6.9704373125,-27.88174925,8.354149544200686,-0.2291863899999997,0.0001675,0.0,221,4,67.69399339696672,340.567569,mp-11260,Ti3Au,https://materialsproject.org/materials/mp-11260,46.24858156144127,36.954825685022335,58.27395009912907,33.49912174988093
-5.465652315,-43.72521852,4.493544549337602,-1.707815638125,6.0000133,0.0,119,8,71.10591594019479,192.418,mp-753050,Li2FeNiO4,https://materialsproject.org/materials/mp-753050,13.983341600939095,77.93476166789858,8.665210623067098,75.16215155136796
-6.45578348625,-51.64626789,17.80858590262909,-0.1334008924999992,3.8637796000000004,0.0,123,8,119.82215123213528,1285.0423999999996,mp-1224947,FeNiPt6,https://materialsproject.org/materials/mp-1224947,57.56175179138578,58.47127606203789,82.02316829976543,11.947266908465304
-3.0858194371052634,-117.26113861,1.5776838310710384,-0.14680627921052627,2.7000000000000004e-06,0.0,220,38,582.207385434479,553.1572316,mp-14378,Li12Al3Si4,https://materialsproject.org/materials/mp-14378,37.0082018328571,38.80856380868246,65.1822975502225,-12.707522243328455
-5.74740322125,-91.95845154,17.743576495585973,-0.4471143837499998,1.575e-06,0.0,127,16,245.18429145207836,2619.9,mp-623066,GaPt3,https://materialsproject.org/materials/mp-623066,58.98950976909749,58.238593294755354,81.61179194346548,13.599815201918792
-9.056521266666666,-108.67825520000001,9.525958267402872,-0.15775359868999908,0.0075466000000000005,0.0,36,12,119.27700692233795,684.25238,mp-1247071,Mn2OsN3,https://materialsproject.org/materials/mp-1247071,49.46388969734771,4.832155622674871,48.04767126770242,4.5788638853715495
-1.59175606,-12.73404848,5.754868507650103,-0.16014277874999985,2.51e-05,0.0,194,8,117.24625687980429,406.33600000000007,mp-975799,LiZn3,https://materialsproject.org/materials/mp-975799,56.40634623093687,56.17432036326455,81.34086742347459,9.76001981032863
-9.6072563425,-38.42902537,11.009969477757108,-0.12945721,9.000000000000001e-07,0.0,221,4,59.742828052550756,396.11638,mp-11517,NbRu3,https://materialsproject.org/materials/mp-11517,65.52684810021267,62.886971697551616,89.72778518474472,16.124745564354285
-5.7978802053125,-185.53216657,4.2583195264479246,-1.8625312419349989,15.999999800000003,0.4670000000000001,2,32,281.93566761561226,723.001465,mp-1175408,Li9Mn2Co5O16,https://materialsproject.org/materials/mp-1175408,18.458256119259826,88.43265561214649,10.519700389028632,90.9693130933595
-6.11676056,-146.80225344,3.7316496625463342,-2.1151078649116664,5.0,0.9167,1,24,206.62170375741502,464.331035,mp-765119,Li8Mn3CrO12,https://materialsproject.org/materials/mp-765119,-29.82773499250384,64.34532972374735,-25.71598057217036,73.23200825709162
-9.781275305833333,-117.37530367,12.709632543501518,-0.1895690124999992,0.003473575,0.0,194,12,152.9349090651079,1170.55152,mp-568077,TaFe2,https://materialsproject.org/materials/mp-568077,69.51150571064024,50.18637474681199,72.25373880514063,18.91249475149534
-6.502147794642857,-182.06013825,4.406109307078445,-1.9076791615314292,19.9999774,0.0,8,28,274.87545160107624,729.36032,mp-769581,Li4Mn3Cr2Co3O16,https://materialsproject.org/materials/mp-769581,-2.810458160272795,72.3912705842614,2.563662056563324,60.82409450279589
-6.73434297267857,-377.12320647,4.381099029429248,-2.732039600535715,1.999949925,3.0784999999999987,8,56,535.6482285295232,1413.2326176,mp-531917,Al2NiO4,https://materialsproject.org/materials/mp-531917,1.5308676230052765,65.04226158170668,10.696515655117347,52.983575492786606
-5.7963856259375,-185.48434003,4.2302750099044735,-1.8610366625599992,21.999999600000002,0.4297,1,32,283.80475401688005,723.001465,mp-1175778,Li9Mn2Co5O16,https://materialsproject.org/materials/mp-1175778,10.122221627099082,87.50625810259899,8.40389252819751,96.39158934302715
-6.730125855,-53.84100684,2.7017063728300483,1.8173961049999996,0.0017518375,0.0,191,8,448.54915370032023,729.7919999999999,mp-1178608,Zr,https://materialsproject.org/materials/mp-1178608,43.27389286021991,35.853429369465275,42.50060709476612,30.652785789698445
-7.894310353571428,-110.52034495,6.612180678017213,-0.06229557601999858,0.016436199999999998,0.0,63,14,136.02174699666477,541.63157,mp-1245726,Cr(CoN)3,https://materialsproject.org/materials/mp-1245726,26.599053704732352,53.816331464404385,70.26930832106886,0.2742818431348239
-4.011073253999999,-20.05536627,7.3594174045993155,-0.36917929416666695,1.8000000000000001e-06,0.0,139,5,70.23580218388093,311.2812,mp-1096930,Cu(AgO)2,https://materialsproject.org/materials/mp-1096930,46.55024527299353,35.39299574431713,56.21661015365739,32.557539916762465
-5.25969996,-15.77909988,2.7941664094270515,-0.13991729944444484,5.56e-05,0.0,191,3,36.6675579601605,61.7,mp-1009695,CaB2,https://materialsproject.org/materials/mp-1009695,35.282199452427776,41.734636773248376,41.850784423630145,27.0425611380399
-7.287035870294117,-495.51843918,3.5113972953332584,-3.383676696617646,3.5e-07,2.1597999999999993,8,68,654.8493666887135,1384.7529264,mp-532405,MgAl6O10,https://materialsproject.org/materials/mp-532405,2.4107757859338914,62.3709792074894,8.464659674071491,52.4947510438945
-7.777437789166667,-1119.95104164,0.8285916756183763,-3.1513886066666674,0.0,6.1453000000000015,217,144,5779.772813668907,2884.0464,mp-600096,SiO2,https://materialsproject.org/materials/mp-600096,-81.6390655357522,31.82745628093308,-81.68256172022416,42.5266799871997
-6.761082762777778,-243.39897946,6.861892040447137,-0.8161360061111106,0.0002448,0.0,6,36,697.8342402710217,2883.6800000000007,mp-1215774,Zr3GeAs5,https://materialsproject.org/materials/mp-1215774,34.02260734014697,26.38618483644022,54.66968720631482,9.472446147366435
-6.302300835357142,-176.46442339,4.50797845728056,-1.8433231301028576,17.9999987,0.0,8,28,271.4994746774657,737.05812,mp-774451,Li4Mn3Fe2Co3O16,https://materialsproject.org/materials/mp-774451,-2.592846040214696,72.29483462546412,2.7099597843169603,60.760805945231034
-6.37801315,-38.2680789,3.2805872264206863,-2.388794335,1.9999997999999999,0.0,10,6,58.912313711679495,116.3881,mp-1221972,MgSiO4,https://materialsproject.org/materials/mp-1221972,-0.3206052979673506,72.80071860647294,7.498345088777679,50.27604501215361
-5.8005008971875,-185.61602871,4.246880182852209,-1.8651519338099989,16.0,0.5227999999999997,1,32,282.6950860203897,723.001465,mp-1175775,Li9Mn2Co5O16,https://materialsproject.org/materials/mp-1175775,18.569970391632207,88.49192828759493,10.509500396524258,90.7665151433167
-5.127944121666666,-30.76766473,10.078223768390119,-0.3769543641666668,3e-07,0.0,216,6,85.03834137632406,516.1188099999998,mp-1072553,TmCdNi4,https://materialsproject.org/materials/mp-1072553,70.6643920380013,48.082957225374834,73.56718225925455,23.52344686230753
-6.1401764666666665,-18.4205294,11.279319607962684,-1.2229810283333329,0.0,0.4162999999999997,216,3,71.26954096713627,484.103,mp-16329,ErSbPt,https://materialsproject.org/materials/mp-16329,87.77978624378487,2.2791987742176625,66.25809160021765,47.61264921594938
-6.2220439875,-49.776351899999995,10.655006405506054,0.160534305351562,8.400000000000001e-06,0.0,194,8,120.8355844456173,775.3530000000001,mp-974372,Rh3Se,https://materialsproject.org/materials/mp-974372,59.84115972420361,56.66772989657663,85.49247918089164,15.422518642627553
-9.67883481,-19.35766962,6.146288683519215,-1.162996046189999,9.000000000000001e-07,0.0,225,2,17.54701531786435,64.9482,mp-925,VN,https://materialsproject.org/materials/mp-925,29.2474186445965,60.66045250149914,56.393264575184034,44.137403038171094
-6.1484025791666665,-73.78083095,15.416862060882714,-0.8611489191666664,3.3575e-05,0.0,62,12,179.7234979797505,1668.5981544,mp-16526,AlPt2,https://materialsproject.org/materials/mp-16526,59.20959742814855,31.182734809017223,72.08361772869011,13.364466725864348
-7.2392303625,-28.95692145,18.536595427054163,-0.10698947249999956,7.11e-05,0.0,139,4,61.20685023433051,683.252,mp-972326,TcPt3,https://materialsproject.org/materials/mp-972326,60.127823712232704,57.94548199583295,82.73638056891772,13.87998264839458
-3.6932895725,-14.77315829,6.446553617300067,-0.07941103721354148,0.0,0.0,166,4,87.76192021304294,340.7098,mp-4483,AgAsSe2,https://materialsproject.org/materials/mp-4483,23.71779647246118,22.66894370604939,57.91048616237213,-26.940544795199127
-5.0990807275,-20.39632291,8.716751178188764,-0.25993282999999945,1.5e-06,0.0,225,4,73.55416830945188,386.1115986,mp-1187402,ThAlCu2,https://materialsproject.org/materials/mp-1187402,86.72558236771454,-2.2090054810034974,67.33711917432602,44.32031850216812
-4.871535572857144,-34.10074901,5.684865423652209,-1.0308077108928575,7.340000000000001e-05,0.0,99,7,71.73266164529632,245.5772,mp-1222774,Li(CuO)3,https://materialsproject.org/materials/mp-1222774,21.092026397997913,52.318706278903925,32.59971089478318,13.364309958410898
-10.1038153825,-40.41526153,17.482117835944393,0.3847640706249997,8.83e-05,0.0,139,4,59.96032887812951,631.261,mp-974445,Re3Ge,https://materialsproject.org/materials/mp-974445,58.54879052288621,58.46151714155418,82.94204835773094,12.532720889881684
-6.391713912272728,-140.61770607,4.030263019453277,-1.9037840026745447,9.00038065,1.0792000000000002,64,22,229.64842675329876,557.37537,mp-754926,Li2Mn2CoO6,https://materialsproject.org/materials/mp-754926,10.659279160497043,73.18641378586865,12.807744621901968,73.0466234599887
-6.7420767275,-26.96830691,18.09162149352084,-1.057602253749999,2.4e-06,0.0,221,4,69.06920388407144,752.5110000000001,mp-1913,ErPt3,https://materialsproject.org/materials/mp-1913,69.11534182108011,56.66590177411949,56.39617108427869,41.33547040689921
-7.5545200308333325,-90.65424037,3.0624237790611453,-2.9284708483333333,0.0,3.599,7,12,130.3181179864786,240.3372,mp-553881,SiO2,https://materialsproject.org/materials/mp-553881,-80.02097297208938,30.30391821856212,9.727805004827193,-6.610514976094213
-9.19426684,-18.38853368,10.995386750226741,-0.08962634999999786,0.00017549999999999998,0.0,187,2,30.029931932272504,198.8455,mp-1221419,MoRh,https://materialsproject.org/materials/mp-1221419,65.54900100529126,62.84481993133869,89.75695835835835,16.12814661342773
-2.953215459375,-47.25144735,1.7015155758639449,-0.2418161031249997,0.0,0.3743999999999996,215,16,258.70600325835517,265.09,mp-1105932,Li2MgSi,https://materialsproject.org/materials/mp-1105932,36.34304349016324,38.32097861521489,40.85585701077531,55.30850553357428
-5.94840696625,-47.58725573,4.56348898593441,-1.892831691875001,2.9267497000000002,0.0,119,8,70.38129926973033,193.4217,mp-1178032,Li2CrCuO4,https://materialsproject.org/materials/mp-1178032,13.930835966835316,77.89770966746688,8.671063631353261,75.24491661325034
-5.904169791999999,-118.08339584,4.050771615187516,-1.947131056471,5.000000099999999,0.26180000000000003,2,20,176.0174205967949,429.38248,mp-1174117,Li3MnCoO5,https://materialsproject.org/materials/mp-1174117,2.335980750028952,92.60973758100864,12.181457845730026,93.16658784881996
-6.696280051666666,-200.88840155,4.369295276191949,-1.9117948211726656,12.00000135,0.2637999999999998,165,30,287.03362541525934,755.25756,mp-770527,Li2Mn4O9,https://materialsproject.org/materials/mp-770527,-8.508230573684925,69.32152961450814,-21.25172863046327,74.27433379432097
-8.63158965125,-69.05271721,5.613561967253102,-0.15054003468749855,0.43157845,0.0,194,8,85.24513127561174,288.1768,mp-1078494,Cr2SiC,https://materialsproject.org/materials/mp-1078494,31.452798550536304,56.58103131657162,82.37409997386344,20.06232159946323
-6.035870535,-12.07174107,14.909773369871758,0.20888834000000056,0.0009710000000000001,0.0,187,2,28.47115976318903,255.639,mp-1187910,ZnOs,https://materialsproject.org/materials/mp-1187910,60.402314026954095,62.763957905596705,83.28777485808735,8.60208346343075
-5.463170044999999,-32.77902027,10.043387859508721,-0.4059929572222221,0.0,0.0,216,6,85.73126546511172,518.52581,mp-20896,TmInNi4,https://materialsproject.org/materials/mp-20896,70.7037391318799,48.00087121502588,73.56323914282338,23.700975173112287