energy_per_atom,energy,density,formation_energy_per_atom,total_magnetization,band_gap,sgr,num_sites,cell_volume,weight,mp_id,formula,URL,tsne_cry_0,tsne_cry_1,tsne_xrd_0,tsne_xrd_1
-6.215614132777778,-447.52421756,3.66311547442308,-2.2099251946072216,31.001080600000005,1.1001999999999998,1,72,628.7950844940308,1387.109215,mp-768724,Li24Mn7Cr5O36,https://materialsproject.org/materials/mp-768724,-11.144685825499911,99.99771805375704,-12.40048767443834,98.07376565566022
-3.8744215716666655,-23.24652943,11.749438951422427,-0.3411501433333329,1e-07,0.0,216,6,88.21636611838665,624.1905690000001,mp-1077165,YbCu4Au,https://materialsproject.org/materials/mp-1077165,79.73767166009647,29.71511257632205,71.3912410559087,25.819903798096682
-7.34038702,-22.02116106,9.800231955331096,-0.19754970333333333,3e-07,0.0,216,3,68.31016347287085,403.1555,mp-10367,HfSbRh,https://materialsproject.org/materials/mp-10367,87.14528850670472,2.33875658398812,58.155727879016816,68.80343373428185
-7.15876643,-28.63506572,13.696774241988988,-0.03525343750000065,5.2e-06,0.0,139,4,60.993718394140956,503.1,mp-1186437,Pd3W,https://materialsproject.org/materials/mp-1186437,59.97224559585803,57.312204099376686,82.73289637050439,13.818092174638616
-5.7903956746875,-185.29266159,4.255449698172576,-1.8550467113099989,16.0000004,0.16590000000000016,1,32,282.1258019158955,723.001465,mp-1175929,Li9Mn2Co5O16,https://materialsproject.org/materials/mp-1175929,19.050500837112406,89.259471979706,10.303847173969515,90.51126928887028
-5.945489737999999,-29.72744869,5.900038996872215,0.3340622380480006,0.0637143,0.0,115,5,59.46626534084928,211.28878999999998,mvc-13747,Zn(CoN)2,https://materialsproject.org/materials/mvc-13747,26.37167513349013,49.99573657548869,12.26511498313808,45.180428826435396
-6.966972853333334,-41.80183712,9.701045840428897,-0.24886888333333346,3.4e-06,0.0,227,6,88.31827769377199,515.96478,mp-1112,CeCo2,https://materialsproject.org/materials/mp-1112,70.56777741732895,46.659749229795615,73.1428148276648,25.514718186969123
-8.6062243075,-137.69958892,5.523157317516657,-0.8782077903566671,0.807480025,0.0,62,16,162.12700435692312,539.25438,mp-1247032,TiCoN2,https://materialsproject.org/materials/mp-1247032,23.024126391916237,53.80137307437376,10.76338356428985,46.36372730940464
-9.899253793333333,-59.39552276,13.108564906305974,-0.028622211666666193,2.0381913000000003,0.0,227,6,88.14234644912018,695.81,mp-339,UMn2,https://materialsproject.org/materials/mp-339,80.6761319674567,30.39410628385065,70.98580472272505,23.957473421777078
-5.798636795625,-185.55637746,4.258026915667731,-1.8632878322474988,16.0000009,0.3571,2,32,281.9550421797706,723.001465,mp-1175397,Li9Mn2Co5O16,https://materialsproject.org/materials/mp-1175397,18.629820477194013,88.51137369649176,10.522521692799874,90.84284653230586
-7.655925033333332,-91.8711004,12.442494269802436,-0.30986630500000106,0.5216111,0.0,194,12,162.20346592346402,1215.39792,mp-1218018,Ta2GaNi3,https://materialsproject.org/materials/mp-1218018,70.07569081090598,49.88028994552479,72.53042961866517,19.41234632040621
-9.493479813333332,-142.4021972,6.747218585502679,-0.530468622285332,0.0035474333333333336,0.0,12,15,135.85242677606442,552.0051,mp-1096898,Cr3N2,https://materialsproject.org/materials/mp-1096898,30.929030115051283,56.301958206774245,73.3630162931207,-2.335865779315723
-5.839942062857142,-163.51837776,4.181625447201027,-1.8994288680150009,8.9999999,0.9198999999999996,1,28,248.24084379563166,625.12847,mp-1174630,Li4MnCo2O7,https://materialsproject.org/materials/mp-1174630,10.300293487245481,87.346845403403,8.469298787806423,96.43256763255471
-3.153077835,-12.61231134,5.473004269346321,-0.4600865616666665,0.0,0.14290000000000005,216,4,73.8823092104957,243.5102,mp-16238,Li2AgSb,https://materialsproject.org/materials/mp-16238,84.30725522286995,-4.015488843536011,65.52309131496033,44.00812978943162
-11.924361315,-95.39489052,17.656412488313702,0.12411735187500028,1.385e-05,0.0,194,8,123.11947234817323,1309.1219999999996,mp-974589,Re3Mo,https://materialsproject.org/materials/mp-974589,60.293754681463405,57.8585659253279,82.77369218980496,14.167276565876286
-6.890327394568965,-799.27797777,2.4888904065211794,-0.12063973312999993,0.0,0.5245999999999995,33,116,884.6551331230321,1325.9607999999996,mp-1182541,B24N4O,https://materialsproject.org/materials/mp-1182541,5.849732612261174,57.57028851429678,0.026628404983348012,54.31703393219786
-6.7231066325,-107.56970612,2.611718721173569,-2.9885536650000004,0.0,5.8713,7,16,146.20584056486598,229.954564,mp-8070,Li2BeSiO4,https://materialsproject.org/materials/mp-8070,-61.61772918106328,28.97705539318148,-39.778755362009456,42.999262737698615
-6.948647097,-69.48647097,2.6019152326520025,-0.18658806816666668,1.7e-06,0.0,131,10,109.41458005791534,171.4428,mp-15607,Ca(BC)2,https://materialsproject.org/materials/mp-15607,32.36126858694074,51.31874553549717,27.1628177347244,-38.225641608322476
-8.024971906000001,-40.12485953,4.962107071855981,-3.572886648583334,0.0,1.7828,221,5,61.40220947474367,183.4852,mp-5229,SrTiO3,https://materialsproject.org/materials/mp-5229,17.083290190381184,-94.37449429758348,60.95178527048315,-64.5700033980039
-3.37738237,-20.26429422,5.195598180541976,0.06474210833333356,5e-08,0.0,129,6,102.587444913163,320.982,mp-1018798,MgCuGe,https://materialsproject.org/materials/mp-1018798,35.61307691174228,26.58901759257741,78.89154169675747,9.865713677883598
-6.779674621875,-216.9495879,9.669416744136758,-0.23302703406250025,50.0866382,0.0,123,32,487.56822005557615,2839.138495,mp-758104,Mn11Pd21,https://materialsproject.org/materials/mp-758104,59.01502215380614,56.329840489712495,81.77273907787944,13.986022104945967
-4.697153953,-46.97153953,3.34974621455445,-3.1288928783139998,0.0,6.1271,225,10,133.27505569993463,268.8510192,mp-1111112,K2LiGaF6,https://materialsproject.org/materials/mp-1111112,-13.90333983615629,52.762047236560754,-2.8479113664926032,57.33845190311781
-5.7912983225,-185.32154632,4.245409868666442,-1.8559493591225,16.0,0.4934000000000003,3,32,282.79299190181945,723.001465,mp-1176273,Li9Mn2Co5O16,https://materialsproject.org/materials/mp-1176273,19.212814267316144,90.78747061088718,9.97021629054071,89.17645066094832
-6.216577414027778,-447.59357381,3.659877533506962,-2.2108884758572223,31.001106699999998,1.0745,1,72,629.3513876252963,1387.109215,mp-777641,Li24Mn7Cr5O36,https://materialsproject.org/materials/mp-777641,-11.13273617178388,99.94286039335968,-12.427419411459846,97.95134798603227
-5.77792426875,-46.22339415,4.750974764801083,-2.4141348393749995,0.0,2.6554,122,8,74.39085387543456,212.839964,mp-550433,BeZnO2,https://materialsproject.org/materials/mp-550433,20.729810515521848,52.618958733382605,8.369090771151747,74.46060939720309
-5.7905286103125,-185.29691553,4.228007635828505,-1.8551796469349997,20.0000003,0.5368000000000004,1,32,283.9569513630819,723.001465,mp-1176001,Li9Mn2Co5O16,https://materialsproject.org/materials/mp-1176001,15.64420750425094,89.74929143118521,7.244189298699823,91.78256580561741
-8.5976379225,-171.95275845,6.145569737621143,-0.25919876945200004,6.90879915,0.0,59,20,210.438166322328,778.82085,mp-1245394,Mn5NiN4,https://materialsproject.org/materials/mp-1245394,26.470631304246698,54.00531891825956,69.26635656386223,-0.1902424762717137
-7.1649382899999985,-42.98962974,9.691922886955103,-0.2373447724999996,0.3649456,0.0,216,6,84.27612790045585,491.8871,mp-1223821,HoZrCo4,https://materialsproject.org/materials/mp-1223821,70.63666481498737,48.425761675375824,73.46271823700332,23.226861527849184
-6.170708309999998,-203.63337423,4.277060802831946,-1.8302091149472723,8.000000466666666,0.3242000000000003,2,33,324.31635644118734,835.34367,mp-758510,Li2Mn2NiO6,https://materialsproject.org/materials/mp-758510,10.81276892035378,76.26389614653482,21.34851771517088,82.96595658761512
-7.0421139458064514,-436.61106464,4.097189005785536,-1.8414601533741928,30.99999975,0.0,88,62,710.3143402909425,1752.6189,mp-766948,LiMn10O20,https://materialsproject.org/materials/mp-766948,6.845188954598331,70.07714791093477,15.874598943392956,83.72211039942951
-5.7991311903125,-185.57219809,4.2421621843107875,-1.8637822269349995,16.0000004,0.3146,2,32,283.0094905493923,723.001465,mp-1175441,Li9Mn2Co5O16,https://materialsproject.org/materials/mp-1175441,18.50579331529985,88.4299190290649,10.44379372836936,90.71907207260423
-9.6873774775,-38.74950991,6.150285000814429,-1.1715387136899995,1.55e-06,0.0,11,4,35.071227321480706,129.8964,mvc-13303,VN,https://materialsproject.org/materials/mvc-13303,29.472579290735602,60.07104446650524,83.07436439942657,22.19518199399828
-8.974563679375,-143.59301887,5.249448039496457,-0.5068955189062496,3.8900000000000004e-05,0.0,194,16,168.77888937629513,533.5592772,mp-569458,AlV4C3,https://materialsproject.org/materials/mp-569458,29.747797388039466,59.61388558824334,82.76485773767205,21.51621818720927
-6.216034893333332,-447.55451232,3.659569538176671,-2.210345955162777,31.000873300000002,1.127,1,72,629.4043548626936,1387.109215,mp-769012,Li24Mn7Cr5O36,https://materialsproject.org/materials/mp-769012,-11.129863061647015,99.92119460035748,-12.443590295631438,97.9064809744925
-1.4313154908333334,-17.17578589,5.074138951683034,-0.04798595416666659,3.3e-06,0.0,63,12,203.05931702282692,620.4920000000002,mp-1094439,MgZn2,https://materialsproject.org/materials/mp-1094439,47.52224808272477,32.82656334248071,80.65783754420032,19.770556582229766
-7.256693351111113,-130.62048032,7.779091850083022,-0.4690925774074073,0.0,0.0,137,18,178.9206082107653,838.1855599999999,mp-22165,Ce(CoB)4,https://materialsproject.org/materials/mp-22165,55.365204915411006,26.131513303688145,73.8572695634064,14.88583630545482
-6.2150603251388885,-447.48434341,3.6592317276441153,-2.2093713869683334,31.0000005,1.1196000000000002,1,72,629.4624597973177,1387.109215,mp-768841,Li24Mn7Cr5O36,https://materialsproject.org/materials/mp-768841,-11.141918082840526,99.98322339714315,-12.44120881876847,97.87308075372299
-4.81963326,-19.27853304,8.846710862387617,-0.4131219475000005,9.63e-05,0.0,187,4,86.75553617911062,462.2000000000001,mp-1219442,SbTePd2,https://materialsproject.org/materials/mp-1219442,35.589272187241725,26.59131168661517,74.74583787541077,15.940080483064255
-5.58748056,-27.937402799999997,3.2758492375200086,-2.07994394485,2.0000006,0.0,221,5,57.826542971597874,114.0780386,mp-1184936,KAlO3,https://materialsproject.org/materials/mp-1184936,31.592192266697896,54.266390912827816,85.96158769210363,21.832338177335888
-5.957524024285715,-41.70266817,15.530378170070755,-0.2665514692857148,0.0014144000000000001,0.0,123,7,120.31563382764726,1125.2655,mp-1078014,SiSbPt5,https://materialsproject.org/materials/mp-1078014,56.98455704097827,58.13926063868848,80.68717782764375,12.071643940211706
-7.757901325,-124.12642120000001,13.352016301650071,-0.5037813331250005,1.25e-05,0.0,187,16,247.52448494583302,1990.28802,mp-1218026,Ta4(Pd3Rh)3,https://materialsproject.org/materials/mp-1218026,60.71370708998239,56.976827774073,81.98746605600017,14.508900743688722
-6.9868092575,-27.94723703,5.39214452117877,-0.3062965800000006,6.73e-05,0.0,139,4,65.69423886500756,213.324,mp-972069,Ti3Ga,https://materialsproject.org/materials/mp-972069,60.75278298199629,53.548923015901785,80.87803964717206,18.049477808669934
-8.646143433333334,-51.8768606,10.659152370141427,-0.3771384299999999,1.9e-06,0.0,6,6,93.07154156197386,597.43476,mp-1220414,NbRh2,https://materialsproject.org/materials/mp-1220414,66.97789174229594,61.08115454866411,88.13425497113194,17.582458947412213
-7.624480016000001,-38.12240008,6.910163935549201,-0.029270378749998827,6.9999983,0.0,221,5,58.209724628544514,242.233835,mp-2930,Mn3ZnC,https://materialsproject.org/materials/mp-2930,49.28812915749646,62.688912715962715,87.97762595776103,10.18107771619084
-9.585714014285713,-67.09999810000001,5.7269174982836475,-0.4438222851785706,0.0019297000000000001,0.0,166,7,69.53026770285452,239.7981,mp-1216471,V4C3,https://materialsproject.org/materials/mp-1216471,29.66361287887248,59.89487711159045,56.427492465095504,44.144310442486194
-7.619178263333333,-22.85753479,16.53793538877539,-0.5548905499999996,9.000000000000001e-07,0.0,71,3,44.29086995720321,441.1095,mp-12108,VPt2,https://materialsproject.org/materials/mp-12108,56.628968293628866,58.29215838586835,81.23545739574209,10.919619677847207
-6.826376215,-40.95825729,6.358263689972754,-1.0758782665104174,4.1e-06,0.0,99,6,114.72281929037732,439.2778,mp-1215461,Zr2As3S,https://materialsproject.org/materials/mp-1215461,33.929707748460125,26.345319293216267,51.916020987264936,0.9562626383945284
-7.27009443,-29.08037772,17.56594318760102,-0.4576714200000005,0.6716905,0.0,139,4,60.14047366895279,636.1935,mp-2705,VPt3,https://materialsproject.org/materials/mp-2705,57.33823929691936,58.314303329098024,81.52415665989234,11.972748028790786
-6.47274196625,-51.78193573,4.977463313959083,0.20777071124999932,0.0021617,0.0,191,8,142.33468247793175,426.648,mp-672250,Ti3Ga,https://materialsproject.org/materials/mp-672250,23.817396018085514,22.51745502851721,81.09038268144876,19.66000574177615
-6.167502168695653,-141.85254988,3.652824531495352,-2.081137504297391,10.9989863,0.0,1,23,209.2625083848684,460.33198,mp-764763,Li7Mn4O12,https://materialsproject.org/materials/mp-764763,-10.845830794128013,100.85299581871027,-12.087426198931578,98.33729953503105
-6.17787355125,-98.84597682,16.756663005449337,-0.6982260812499996,6.25e-07,0.0,127,16,242.68261338478482,2448.9341544,mp-607111,AlPt3,https://materialsproject.org/materials/mp-607111,55.45318834123296,41.63702302709183,79.92100978901118,12.301777802742604
-5.130697103999999,-51.30697104,2.873865726966921,-3.4450791356140003,0.0,6.5459999999999985,225,10,112.03239481499399,193.89249636,mp-1111056,Na2LiAlF6,https://materialsproject.org/materials/mp-1111056,31.84759964390107,53.45266668788827,87.90099005735105,6.998476324899262
-5.748008935,-45.98407148,4.4617000471089945,-1.771226228244999,3.0000002999999995,0.18409999999999996,10,8,71.2758731998929,191.511045,mp-754945,Li2MnNiO4,https://materialsproject.org/materials/mp-754945,13.681956436121428,78.99307382570309,23.301821367277395,81.25642806690165
-7.0022339439999985,-35.01116972,8.637261599102048,-0.5712132136666668,1.4599999999999999e-05,0.0,139,5,58.52539565479773,304.41871000000003,mp-573995,Ho(CoB)2,https://materialsproject.org/materials/mp-573995,55.81551073356793,25.34882595385128,48.99320873202029,-1.7919629782079167
-7.426064031875,-475.26809804,3.682669275399965,-3.4485196072265625,6.85e-06,4.3195000000000014,194,64,602.2711881964602,1335.6901264,mp-28234,CaAl12O19,https://materialsproject.org/materials/mp-28234,3.5241118012085266,61.16495249347263,7.417376208344932,51.69974812642578
-6.078260945,-36.46956567,10.602859449217542,-0.3835313683333332,8e-07,0.0,194,6,97.6506371796834,623.518,mp-1018714,HfGaCu,https://materialsproject.org/materials/mp-1018714,51.01012545571235,35.73557500137783,54.99348825198492,33.75867116948268
-10.9029028575,-87.22322286,13.207238056033235,0.10586131749999872,1.49e-05,0.0,194,8,120.15713982093807,955.68,mp-1187398,Tc3W,https://materialsproject.org/materials/mp-1187398,59.09511764471674,57.68990922483602,83.38181368869884,12.629970027249833
-4.743824727857144,-66.41354619,5.6038122530298535,-0.7797632700000007,4.00000015,0.0,12,14,142.2811977049254,480.1556,mp-754800,Ni3O4,https://materialsproject.org/materials/mp-754800,16.872963827902225,63.83338431781952,29.471349209107256,77.42184037075509
-9.21156189875,-73.69249519,15.967325189331575,0.3730196575600005,3e-07,0.0,36,8,84.95925516124973,816.9467999999998,mp-1078828,OsN,https://materialsproject.org/materials/mp-1078828,51.54374582802519,19.32873733350614,49.71783109959465,7.186343835290619
-5.16114283375,-41.28914267,6.838340305725117,0.4208745375000005,2.38467625,0.0,194,8,132.95549796052327,547.53,mp-1184472,FeGe3,https://materialsproject.org/materials/mp-1184472,58.88679313046669,48.67162783695029,58.31153002686136,38.87034485891096
-5.366686973999999,-53.66686974,5.830682509522635,-1.0607876952500006,3.00000025,0.8815000000000004,148,10,94.3376483423082,331.24959,mp-1178424,CoNiO3,https://materialsproject.org/materials/mp-1178424,13.079829817866564,53.52700747119303,7.152972647812039,49.962047939081195
-5.736629799999999,-22.946519199999997,8.403267327515378,-0.5602377800000005,1.6e-06,0.0,225,4,72.04708000453077,364.5990000000001,mp-861935,CaSnRh2,https://materialsproject.org/materials/mp-861935,94.9181193594442,2.289616104450064,71.60173201506524,55.18284616254849
-6.2474723225,-49.97977858,10.314455199052258,-0.1614808437500006,0.32763459999999994,0.0,123,8,120.63137945741468,749.303045,mp-1221696,MnFePd6,https://materialsproject.org/materials/mp-1221696,59.13798729800664,56.68098671814472,83.52428549056916,12.006113864514179
-7.050985970810811,-521.77296184,4.090192816335634,-1.8325339019329725,37.00000015,0.0,13,74,852.7080171648743,2100.36628,mp-694894,LiMn12O24,https://materialsproject.org/materials/mp-694894,6.865836678351182,70.11912732748586,15.90242816940181,83.52447616831178
-6.203163076666668,-37.21897846,3.425295347109148,-2.183347287708333,2.0000002,0.0,65,6,55.20576263309489,113.8763,mp-755602,Li2CrO3,https://materialsproject.org/materials/mp-755602,-28.879118270403556,64.13787579766016,-29.044533171989606,66.94146121242932
-4.69425326375,-37.55402611,12.706598446994569,-0.21890950875000129,2.55e-06,0.0,139,8,136.86277193879494,1047.2866,mp-1079938,TlPd3,https://materialsproject.org/materials/mp-1079938,63.69724298855093,54.23533594905543,56.586925599081795,36.55912857300981
-5.657689155,-90.52302648,4.5123444982614025,-1.7196981300600005,8.9705004,0.0,160,16,142.51026830507163,387.257035,mp-1222664,Li4MnCo2NiO8,https://materialsproject.org/materials/mp-1222664,13.865305046055953,79.82053966250301,23.558531228773447,81.50871778213087
-4.529607528333334,-27.17764517,10.492790221309347,-0.270174505833334,0.0015632999999999999,0.0,216,6,82.32826918754384,520.2246,mp-1077738,YbCdNi4,https://materialsproject.org/materials/mp-1077738,70.26639619241054,49.16931204337389,73.51991031155606,22.590679629227484
-6.011592521875,-96.18548035,3.9341746341341857,-2.0400939382450005,8.0000009,0.8833000000000002,12,16,139.92374339375058,331.5094850000001,mp-1174049,Li5Mn2CoO8,https://materialsproject.org/materials/mp-1174049,5.8296108733577965,86.72097183987397,-4.946561679852682,94.0688606299398
-5.7785143525,-46.22811482,4.658978082943519,-0.34550168874999976,0.6293147,0.0,123,8,125.00813813919314,350.7356116,mp-1220329,NbAl6Mo,https://materialsproject.org/materials/mp-1220329,47.09227804629033,38.155356867906704,76.20576985104492,15.852635073908207
-7.860212247500002,-94.32254697,13.624776077893516,-0.24357585249999994,1.4833271000000001,0.0,194,12,173.26718868925857,1421.66284,mp-17023,UNi2,https://materialsproject.org/materials/mp-17023,72.26185222908387,50.07818025119341,70.11245785733642,23.025042437046302
-7.42625670140625,-475.28042889,3.6861574960281223,-3.4487122767578136,0.0002955,4.348,186,64,601.7012573715633,1335.6901264,mp-1227489,CaAl12O19,https://materialsproject.org/materials/mp-1227489,3.503051226353259,61.20172396823936,7.42251895637666,51.74473114341378
-8.881367785,-124.33914899,5.825377974535265,-0.3392256117342853,6.8374841,0.0,194,14,149.75478900135485,525.35847,mp-1247277,Mn3FeN3,https://materialsproject.org/materials/mp-1247277,25.653225685387465,54.35184604809177,70.26977232853139,-1.5351025408902919
-6.86257743625,-54.90061949,13.702134244349608,-0.40858023875,1.65e-05,0.0,194,8,144.3691457074664,1191.2790772,mp-1078728,HfAlPt2,https://materialsproject.org/materials/mp-1078728,55.163856767659766,16.88089624495094,49.338560299468014,-0.371378652414854
-6.22151816,-298.63287168,3.6495108329354737,-2.2138111002883334,4.999999875,1.0387,1,48,419.86700774296315,922.77818,mp-768647,Li4MnCrO6,https://materialsproject.org/materials/mp-768647,-11.096928535459766,99.74640303721243,-12.440875980522414,97.89999213068907