energy_per_atom,energy,density,formation_energy_per_atom,total_magnetization,band_gap,sgr,num_sites,cell_volume,weight,mp_id,formula,URL,tsne_cry_0,tsne_cry_1,tsne_xrd_0,tsne_xrd_1
-5.4591203283333325,-32.75472197,12.907234212967888,-0.8598832749999996,5e-08,0.0,227,6,122.9365817266113,955.576,mp-1349,SrPt2,https://materialsproject.org/materials/mp-1349,83.62229020805508,10.315876459276234,60.4551366700449,24.37368953565404
-4.6314454025,-18.52578161,7.1986319457830525,-0.3107004195833332,2e-07,0.0,225,4,66.17257969415294,286.86591200000004,mp-21067,ScInCu2,https://materialsproject.org/materials/mp-21067,93.84112191013027,12.65609332526626,61.51296249880597,65.25169084479697
-7.294464436923077,-189.65607536,3.576680807812845,-3.2520154038461535,0.9997179,0.0,186,26,244.11488808384956,525.805786,mp-1182893,Al5O8,https://materialsproject.org/materials/mp-1182893,4.5855423853676465,62.08565987150104,7.767352326178485,51.15931906295982
-1.4014931566666666,-16.81791788,5.000540060072987,-0.018163619999999863,8.315e-05,0.0,12,12,206.04798234385933,620.4920000000002,mp-1094456,MgZn2,https://materialsproject.org/materials/mp-1094456,47.466213410780924,32.76495404260867,80.55613395977126,19.875499164051885
-8.454015966666667,-152.17228740000002,7.428200265557796,-0.16330465745999825,2.957005183333333,0.0,18,18,168.5934170490444,754.1802,mp-684744,Fe2N,https://materialsproject.org/materials/mp-684744,48.44377520399618,62.8486909626083,89.7856168529138,11.431348038553104
-7.256688993999998,-36.28344497,3.544703593522662,-2.391793772583333,4.4e-05,0.0,221,5,57.548339374478296,122.8467386,mvc-11693,TiAlO3,https://materialsproject.org/materials/mvc-11693,25.31276810942494,-95.51162647140316,62.170442862679614,-41.85635662694983
-5.7659017828125,-184.50885705,4.195877564967286,-1.830552819434999,21.618440600000003,0.0,8,32,286.13136108490187,723.001465,mp-1100668,Li9Mn2Co5O16,https://materialsproject.org/materials/mp-1100668,6.857719009252316,95.00151275706459,3.3782810261012632,89.44995716330942
-10.037919105833334,-120.45502927,12.162807624745994,-0.2341995749999993,4.20094335,0.0,194,12,153.06735051083902,1121.1592699999999,mp-1221815,Mn3SiW2,https://materialsproject.org/materials/mp-1221815,69.60261307410819,50.47142339822178,72.0781046919611,19.09533195320206
-7.68694357125,-61.49554857,5.315342742328257,-0.2730693070833325,4.275e-05,0.0,63,8,134.7226815173042,431.2438372,mp-1217093,Ti2NbAl,https://materialsproject.org/materials/mp-1217093,47.64515355622815,35.2994544170847,50.409697271906026,32.70815734714691
-11.927851615,-47.71140646,17.713304003562214,0.12062705187500099,0.00026349999999999995,0.0,139,4,61.36201887252965,654.5609999999998,mp-974420,Re3Mo,https://materialsproject.org/materials/mp-974420,60.24252380093557,57.878072589132174,82.61452118426102,13.986179314673054
-8.50174332,-42.5087166,4.7200023500644415,-0.9961886017645,1.6100000000000002e-05,0.0,164,5,56.97946901856607,161.96139999999997,mp-1246351,V2SN2,https://materialsproject.org/materials/mp-1246351,24.006937918490163,50.215749284564296,10.271342562174544,44.79592142919946
-4.16591489,-33.32731912,2.7551340874997527,0.30415672375000025,4.36e-05,0.0,194,8,130.8615865985333,217.123,mp-1185967,MgSi3,https://materialsproject.org/materials/mp-1185967,58.557254134675276,48.172688569585574,83.34873525894561,17.747270932479182
-5.7885140021875,-185.23244807,4.251921153802487,-1.8531650388099996,15.9999999,0.4752000000000001,2,32,282.3599298251388,723.001465,mp-1175530,Li9Mn2Co5O16,https://materialsproject.org/materials/mp-1175530,18.832092939139255,88.42047234505888,10.863210691995402,90.73486704141196
-9.35832909,-37.43331636,15.299810359232554,0.2262524663100009,0.0,0.0,31,4,44.33296959737995,408.4734,mp-999317,OsN,https://materialsproject.org/materials/mp-999317,32.55948976084145,39.95681670424101,87.37747273341641,1.364906000732386
-5.053817216666666,-15.16145165,7.055430086089856,0.8986406888020836,1.3052031000000002,0.0,216,3,69.58776034430214,295.67,mp-631366,TcSnSe,https://materialsproject.org/materials/mp-631366,87.61908979856443,2.505733102392001,57.6441650021103,68.26774468020314
-5.5324728683333335,-66.38967442,8.982676311340342,-0.8310105083333342,0.0,0.0,62,12,177.3337983805162,959.2861544,mp-2824,AlPd2,https://materialsproject.org/materials/mp-2824,56.572219152620704,40.654270672652736,72.43555883439632,13.346122604237756
-5.511170159285713,-154.31276446,4.815196697619875,-1.4433482785714289,0.9999998,0.9366,186,28,260.27510985553965,754.74037,mp-756196,Li2Co3NiO8,https://materialsproject.org/materials/mp-756196,-0.8240507151051959,71.96382412207097,3.1353771016702514,58.2176737317589
-6.21591719875,-447.54603831,3.661429633637694,-2.210228260579444,31.0028054,1.0812,1,72,629.0846021156048,1387.109215,mp-770232,Li24Mn7Cr5O36,https://materialsproject.org/materials/mp-770232,-11.117616061466697,99.85904377465435,-12.432010503307266,97.95115376176355
-6.4709762425,-25.88390497,9.186959108483881,0.8131384788749996,0.4222165,0.0,139,4,58.96047270181262,326.19976928,mp-977128,NaRu3,https://materialsproject.org/materials/mp-977128,56.70870915525379,56.31911238960949,81.69820757502637,9.89832517056155
-5.035188357692308,-65.45744865,4.5586316283587225,-1.3534375200000004,0.0,1.1748000000000005,12,13,128.47010315436938,352.6854,mvc-15503,Mg2Ni3O8,https://materialsproject.org/materials/mvc-15503,-0.465051080597868,71.71215305724952,-6.857059055846592,62.96219726125146
-4.863405836,-48.63405836,13.238960565871885,-0.4590622176666663,0.0,0.0,12,10,194.35225560708113,1549.5100000000002,mp-510438,InPt,https://materialsproject.org/materials/mp-510438,63.16492322250943,22.132760776566187,68.7676719963241,16.191245690489804
-6.866539200769231,-89.26500961,2.9683037282385265,-0.0942740874358984,3e-07,0.0,225,13,99.35306490349213,177.59900000000002,mp-1245924,TiB12,https://materialsproject.org/materials/mp-1245924,34.790659015044945,39.170372598116906,57.55642519363866,31.805813023623557
-5.1848944690000005,-51.84894469,3.1196267272992584,-3.1573298733139996,3.0,3.8877,225,10,133.67028823292023,251.12411919999997,mp-1111927,K2LiCrF6,https://materialsproject.org/materials/mp-1111927,-13.144214399966321,52.00673074563422,-2.7095855910689406,57.96021245403156
-5.364664399166667,-64.37597279,3.8341823570790474,-1.742800196875001,3.00000005,0.23439999999999994,5,12,104.6457055346076,241.62679,mp-1173888,Li2CoO3,https://materialsproject.org/materials/mp-1173888,-10.70079851738577,100.97606873101928,-11.488622754700126,98.41004055659799
-5.829730115714287,-163.23244324,4.200946065818694,-1.8892169208721432,6.9999999000000015,0.4047999999999998,1,28,247.0991565201564,625.12847,mp-1174692,Li4MnCo2O7,https://materialsproject.org/materials/mp-1174692,16.477317062252663,88.91485840037275,8.098837045457406,91.78581065014244
-5.792750490625,-185.3680157,4.220883077267593,-1.8574015272474995,21.9996745,0.29590000000000005,10,32,284.43625104794165,723.001465,mp-1100715,Li9Mn2Co5O16,https://materialsproject.org/materials/mp-1100715,5.740062469400409,95.36819628801132,2.854965079904661,90.0641422052199
-4.31775996,-17.27103984,10.903255386669137,-0.5091998374999998,6e-07,0.0,225,4,66.11412669664806,434.111569,mp-1185923,MgPd2Au,https://materialsproject.org/materials/mp-1185923,89.0830012353994,15.693200508804752,60.65387803347865,66.47774313279164
-5.475546297999999,-27.37773149,8.634873985397368,0.019449177250000102,2.4e-06,0.0,221,5,57.788351907397605,300.5019,mp-1206343,CdNi3C,https://materialsproject.org/materials/mp-1206343,50.70210775390718,62.1809987877952,85.4653023405308,9.61547239286582
-5.855467099583334,-140.53121039,4.144714366653234,-1.9080682627883343,12.0000001,0.4965000000000002,2,24,211.23971951732202,527.2554749999998,mp-1174838,Li7Mn2(CoO4)3,https://materialsproject.org/materials/mp-1174838,2.6255746564016063,95.23077091982357,11.391588460374205,91.7071181292017
-4.951682723999999,-24.75841362,2.449980220680435,0.7272850802394999,4e-07,0.18400000000000016,164,5,39.38036047744721,58.10227999999999,mp-1096982,H2C2S,https://materialsproject.org/materials/mp-1096982,7.107706921444132,70.25115729833068,19.919699283961442,89.90520262379928
-4.326492643333333,-12.97947793,10.372883573111997,-0.4729774522222226,1e-07,0.0,225,3,67.99113632172117,424.72,mp-22682,In2Pt,https://materialsproject.org/materials/mp-22682,86.88230306080109,2.2823423808886654,58.20078545955885,68.93287143087336
-5.41688835125,-86.67021362,16.618318524871487,-0.3928627522916664,5e-07,0.0,10,16,271.7897980825643,2720.014,mp-1223977,In5Pt11,https://materialsproject.org/materials/mp-1223977,52.1543025419176,32.183105119712174,56.76983679461505,37.940229463273376
-5.4636093575,-131.12662458,4.150473824158919,-1.7030775847916668,18.0000009,0.2241,2,24,214.14338290946048,535.245775,mp-1174266,Li7Co5O12,https://materialsproject.org/materials/mp-1174266,13.920670412178927,88.99989339914076,3.3823374839760154,87.71311287472278
-7.114889348333333,-85.37867218,3.156682684575589,0.8438654275000003,3.2025e-05,0.0,205,12,109.6411015603986,208.4276,mp-1102811,SiC2,https://materialsproject.org/materials/mp-1102811,29.27429188171461,53.074440986308744,53.0003659029779,-27.76326296803493
-7.1086229325,-28.43449173,12.730248426924367,0.6637455406249995,3.1e-06,0.0,216,4,68.92180651823399,528.377652,mp-631487,LaBeOs2,https://materialsproject.org/materials/mp-631487,88.43581412347801,3.022375271637283,57.57165115658013,68.03565752583786
-4.84353627125,-38.74829017,3.619435656987484,-2.5546267946649994,0.0114931,0.0,123,8,72.19590068182343,157.3636096,mp-1147575,Li3CuOF3,https://materialsproject.org/materials/mp-1147575,24.635411272523083,54.49405153036546,12.193752549599276,46.00369545736249
-5.92788939,-23.71155756,11.760985948873278,-0.92473836,1e-07,0.0,221,4,68.92836606820546,488.19420999999994,mp-982,TmPd3,https://materialsproject.org/materials/mp-982,52.087427771382345,31.31682916685251,56.12789344408037,37.86930740301026
-3.8693608175,-15.47744327,3.71564631231974,0.09740311874999996,0.00015830000000000003,0.0,139,4,68.63765521322702,153.5846158,mp-1183195,Al3Ge,https://materialsproject.org/materials/mp-1183195,48.385976850023184,35.91416460525575,56.89054537299045,34.45823317426421
-6.613191646428571,-92.58468305,4.407612436176481,-1.7888442702742853,7.00000105,0.0,72,14,136.24149405066953,361.62937999999997,mp-1222501,LiMn2O4,https://materialsproject.org/materials/mp-1222501,-10.998565992746501,73.03886270102625,-7.06844812673532,64.93443311803479
-6.694280718333334,-40.16568431,6.760172387759043,-0.9396026239322928,1.3500000000000001e-05,0.0,99,6,119.421350267331,486.1728,mp-1215455,Zr2As3Se,https://materialsproject.org/materials/mp-1215455,34.04577314160346,26.363077844812807,54.48090812166018,9.80633915529324
-1.4767185408333334,-17.72062249,4.087282241769687,-0.03813764833333325,1.8333333333333333e-07,0.0,8,12,218.68849365791527,538.2840000000001,mp-1094435,MgZn,https://materialsproject.org/materials/mp-1094435,47.16064263255866,32.87876332953886,49.18278472912333,33.76551972424439
-6.3871956475,-25.54878259,10.321037043976727,-0.2337878499999997,1.2299696000000002,0.0,221,4,59.56126703133128,370.2015,mp-568711,VPd3,https://materialsproject.org/materials/mp-568711,58.86329893573402,56.857165170428544,83.66702070560329,11.534117778849561
-8.614236504166668,-103.37083805,12.798047753788252,-0.3369625866666676,3.15e-05,0.0,194,12,158.64079060087627,1222.6706900000001,mp-1217780,Ta2Co3Ge,https://materialsproject.org/materials/mp-1217780,69.88399176471728,49.99929120732306,72.50365332390047,19.311276266395122
-7.345906484107143,-411.37076311,6.024789190364107,0.004815706658571831,0.5734184,0.0,60,56,578.4203709412817,2098.6322600000003,mp-1247482,Co7SiN6,https://materialsproject.org/materials/mp-1247482,25.08802198627717,53.01426682306731,52.79841812416159,3.517993016375243
-8.764827699999998,-105.1779324,5.709268094054444,-0.45544709285666707,2.15e-06,0.0,36,12,119.0457220785832,409.3032,mp-1246955,VFe2N3,https://materialsproject.org/materials/mp-1246955,21.895437579748997,52.05528126788582,44.39387373074221,36.85734395540984
-4.6008704602702695,-170.23220703,4.527960646552558,-1.0862845331486497,2.0949554,0.0,2,37,391.61277924426537,1067.85038496,mp-760203,Na7(NiO2)10,https://materialsproject.org/materials/mp-760203,7.3878703804341,73.81291322190307,12.907750371951414,67.16282395249317
-7.747819,-30.991276,11.284176688404946,-0.3621429546874992,3.5123651,0.0,225,4,66.18389404390359,449.75199999999995,mp-1185270,LiNpRh2,https://materialsproject.org/materials/mp-1185270,88.71999618726694,15.850291256424985,47.682476260187904,62.80442022894022
-5.305298931875,-84.88478291,3.6505257488855136,-0.3930551272916665,0.0427597,0.0,99,16,248.79858785507125,546.9583246000001,mp-1217228,Ti4Al11Ni,https://materialsproject.org/materials/mp-1217228,59.306387472189954,53.86092773840207,80.73365611617909,17.48688599261821
-9.1283549225,-36.51341969,10.64150730817537,-0.5378708612500009,0.004468,0.0,225,4,74.60940296222886,478.131792,mp-867804,ScPaRu2,https://materialsproject.org/materials/mp-867804,87.82592217596087,-2.4952870306286643,68.3168677259978,46.15018592219078
-4.265185400769231,-110.89482042,2.9790080044312472,-0.0824765761538466,3.41e-05,0.0,12,26,420.56344847932826,754.4910714,mp-1221714,MnAl24Cr,https://materialsproject.org/materials/mp-1221714,57.95480364367872,52.20385228118815,78.50884497147408,5.190242812903536
-5.441874641875,-174.13998854,4.252785309408235,-1.6466759765624994,21.2224509,0.0,12,32,285.4224409155299,730.991765,mp-1176084,Li9Co7O16,https://materialsproject.org/materials/mp-1176084,6.677682800861782,95.04462681589537,3.2621420722952967,89.79232967750194
-7.3680540720000005,-36.84027036,6.368624655833236,-0.5591688686666657,9.000000000000001e-07,0.0,139,5,59.55093486059896,228.39424,mp-3515,Y(CoB)2,https://materialsproject.org/materials/mp-3515,55.54764371944528,25.65359671940356,68.38713211709145,18.69040459044872
-4.5282259425,-18.11290377,10.507198483787294,-0.32641277375000044,2e-07,0.0,139,4,60.792407506469914,384.66900000000004,mp-865425,ZnPd3,https://materialsproject.org/materials/mp-865425,59.724123220661966,56.66562578041727,84.99422253559739,15.296721455240135
-2.300597675,-9.202390699999999,7.618426345484672,-0.1805841370833332,9.03e-05,0.0,225,4,73.0370479175036,335.0884,mp-867872,LiCdAg2,https://materialsproject.org/materials/mp-867872,89.25890045729942,-1.3374849792614352,68.3232299827758,47.4744126250444
-5.7134107275,-91.41457164,3.9643029017917253,-1.882062441935001,10.0000004,0.0,2,16,140.53379832975236,335.504635,mp-1174089,Li5Mn(CoO4)2,https://materialsproject.org/materials/mp-1174089,6.609662275973575,86.3768736511582,-4.912803399756041,94.60888951270168
-4.758687105,-9.51737421,6.22500440686067,0.15148728750000018,3.9e-06,0.0,225,2,41.78233370656977,156.63299999999998,mp-614444,ZrZn,https://materialsproject.org/materials/mp-614444,23.71946460373707,22.63412169456151,58.6190026446784,-27.393136066619977
-4.0611374375,-16.24454975,8.350815511648538,-0.66650394875,9.000000000000001e-07,0.0,216,4,68.61035183478664,345.04,mp-11806,LiMgSnPt,https://materialsproject.org/materials/mp-11806,86.12772039712368,2.1264455961224504,57.657209636943634,69.98421515472907
-6.904665805,-13.80933161,16.69690123885099,0.11631861499999994,2.4e-06,0.0,166,2,29.70002578290423,298.637,mp-1223675,IrPd,https://materialsproject.org/materials/mp-1223675,61.92991879319225,61.181190745077856,84.71540327767686,13.357820433742713
-7.942033538333334,-95.30440246,12.63173954191068,-0.3306285508333341,0.2629674,0.0,194,12,160.54030193749668,1221.23192,mp-1218029,Ta2Ni3Ge,https://materialsproject.org/materials/mp-1218029,69.96431025745997,49.945053729932184,72.52614686223072,19.337204701230988
-6.228928955,-24.91571582,7.836438282228651,-0.7285503466666663,0.7594299,0.0,123,4,60.96111938879275,287.6885386,mp-1217040,TiAlPd2,https://materialsproject.org/materials/mp-1217040,50.894294232066976,38.90471071314787,74.25395665130677,13.778014541448105
-6.941738463999998,-34.70869232,3.6448220429986105,-3.1655700256713337,1e-07,0.8782999999999999,123,5,62.85413112549382,137.9625032,mp-1223210,KTiO2F,https://materialsproject.org/materials/mp-1223210,-12.946387232289801,52.34227865753557,-4.060780981884465,56.3239487397325
-10.1761703425,-81.40936274,14.144837205176069,0.4648150178124997,6.1e-05,0.0,164,8,103.16138566944305,878.7514,mp-1219510,Ru3W3C2,https://materialsproject.org/materials/mp-1219510,64.26713393779127,58.722956063074285,57.54693350669977,39.58212838521628
-3.3668376075,-13.46735043,2.506388980126113,0.14798845500000013,1.5e-07,0.0,123,4,69.41976785322655,104.781,mp-1073705,MgSi,https://materialsproject.org/materials/mp-1073705,52.86805133604972,30.66095406195467,55.91924199116158,41.754119706181065
-6.997508745999999,-34.98754373,8.284531946182506,-0.5566074346666653,0.0,0.0,139,5,59.81359822877471,298.41374,mp-3893,Tb(CoB)2,https://materialsproject.org/materials/mp-3893,55.789262611558115,25.341996112929905,48.917487598869094,-1.7588837073712809
-7.0289528884,-175.72382221,4.105312338109567,-1.8546405451072008,24.999997699999998,0.0,115,25,284.1250327640576,702.43576,mp-1222484,LiMn8O16,https://materialsproject.org/materials/mp-1222484,6.802540976963858,69.91084064547489,15.895744089160374,83.6610131697947
-9.512035400833334,-114.14442481,10.748784966780082,-0.2501559833333336,0.0001198,0.0,194,12,181.47811967378533,1174.7205199999999,mp-1218004,Ta2V3Ge,https://materialsproject.org/materials/mp-1218004,80.53597406626841,30.014175857567093,69.36135554918621,24.432176008358606
-1.5839069825,-6.33562793,2.6974211034464948,0.0,7.615e-05,0.0,15,4,46.78185422506344,75.99361280000001,mp-1067793,F2,https://materialsproject.org/materials/mp-1067793,37.88207023298604,34.978185515881876,20.07931003853401,24.843044536892005
-3.29500720625,-26.36005765,8.402879076167345,0.18282726500000024,0.00021185,0.0,194,8,138.99882069893386,703.3802000000002,mp-1187005,SiAg3,https://materialsproject.org/materials/mp-1187005,48.018984891752034,35.146799169469496,54.8534029751689,33.226401537988174
-7.740907305,-61.92725844,4.570163227578996,-0.4617324987500009,5.03e-05,0.0,194,8,124.76234291613477,343.37300000000005,mp-1187525,Ti3Si,https://materialsproject.org/materials/mp-1187525,59.90926431517707,54.44603560206688,81.14202865180884,17.772575295757974
-7.54810223,-30.19240892,8.313737165523385,-0.24390043343749926,2.0699281000000003,0.0,221,4,64.16596405236204,321.2565,mp-20425,NpSi3,https://materialsproject.org/materials/mp-20425,45.47661431704304,37.418194310266344,13.920065268396106,-12.338859646770992
-11.9300381175,-47.72015247,17.733446040154096,0.11844054937500025,4.1e-06,0.0,187,4,61.29232254691514,654.5609999999998,mp-1219135,Re3Mo,https://materialsproject.org/materials/mp-1219135,62.50567109168438,60.4308943359886,85.55848404720481,14.623240095043252
-6.608034927619048,-277.53746696,2.621091760877444,-0.09385537375000094,4.3700000000000005e-05,1.7243999999999993,185,42,485.743751711972,766.7262948,mp-1228599,Al3BC3,https://materialsproject.org/materials/mp-1228599,21.62027189056053,54.530117552416364,10.584170384459544,45.659190712365074
-5.426190149375,-86.81904239,4.563338884072675,-1.5980346856250005,13.4616272,0.0,166,16,144.13732491334974,396.104785,mp-753919,Li4Co3CuO8,https://materialsproject.org/materials/mp-753919,12.992273001095667,80.8607108611868,22.534400788223664,81.06160245342426
-8.515783250833334,-102.18939901,7.211276198357929,-0.5324743016666673,4.0045612,0.0,194,12,174.11550654160072,756.137,mp-16336,Zr2Fe3Si,https://materialsproject.org/materials/mp-16336,70.23574511068233,47.02954149731756,76.15431592172662,24.09297334549245
-5.0372318471428565,-35.26062293,15.075672559551194,-0.08200232285714193,8.5038352,0.0,12,7,120.57882769897721,1094.708935,mp-30410,Mn2Au5,https://materialsproject.org/materials/mp-30410,51.12431005293725,34.426671322621715,55.626236563934796,35.11331977468345