energy_per_atom,energy,density,formation_energy_per_atom,total_magnetization,band_gap,sgr,num_sites,cell_volume,weight,mp_id,formula,URL,tsne_cry_0,tsne_cry_1,tsne_xrd_0,tsne_xrd_1
-4.771316505714286,-66.79843108,3.4689258161071117,-0.8817887776785714,1.0,0.4378000000000001,2,14,236.9715038651889,495.042,mp-1179222,SrBrO5,https://materialsproject.org/materials/mp-1179222,-0.9885274193755094,-7.955159186573732,-2.5109329980186925,-26.341195906619067
-7.676473583214286,-214.94126033,5.8780029141275625,-3.6132025560714287,0.0,3.4349,62,28,485.2551902254648,1717.7141600000002,mp-752555,SrLa2O4,https://materialsproject.org/materials/mp-752555,-7.557008042046674,-62.71531750534465,-0.3296057673243955,-58.792813765973136
-6.3734777275,-229.44519819,5.664710483660648,-2.870299600694445,0.0,2.9102,130,36,662.0428241768452,2258.472,mp-778602,Ba3GeO5,https://materialsproject.org/materials/mp-778602,-8.889571707553932,-32.18676037967206,-2.2677774885026194,-33.8222363331318
-4.939726233333333,-14.819178699999998,7.928540508559985,-0.3958035066666668,6e-07,0.0,164,3,75.000961721355,358.1055,mp-228,Te2Rh,https://materialsproject.org/materials/mp-228,28.923800973407808,23.456284935742254,26.176166328431936,-44.287756673843184
-4.522594995833333,-54.27113995,8.067123954440703,-0.3732938958333332,0.0,0.0,198,12,292.9354168785221,1423.12,mp-10850,SbTePd,https://materialsproject.org/materials/mp-10850,28.29432376531487,24.822639591284307,38.401853518113704,-23.662694705358966
-7.296033598653847,-379.39374713,3.1458316793474412,-3.1595747828296705,0.0,5.7436,14,52,624.1070080974353,1182.348352,mp-1020606,SrBe2(PO4)2,https://materialsproject.org/materials/mp-1020606,-21.35334202096755,-30.852425235100583,-23.310775082280802,-5.6141374062771225
-8.432200912142857,-118.05081277,5.331667725475371,-2.1995114544642864,13.990032300000001,1.3720999999999997,122,14,290.93323389669763,934.13,mp-38771,Gd2MgS4,https://materialsproject.org/materials/mp-38771,19.177876618271615,-3.5328237518011165,7.508906361413874,-8.88697924996734
-7.1325788795000005,-142.65157759,4.16543884405586,-2.4669740979375,0.0,0.6631,62,20,436.9276223760747,1096.0268,mp-1188645,Y2S3,https://materialsproject.org/materials/mp-1188645,17.382837927203102,-3.0927337795727574,-2.8122256291455296,-15.761299615999036
-4.524818043333333,-13.57445413,4.836945949152192,-0.4857101033333334,3.0002864,1.0135000000000003,164,3,104.62180235151827,304.75043999999997,mp-1018138,VI2,https://materialsproject.org/materials/mp-1018138,9.776818429894185,9.657548364979203,-3.9418293176418153,-3.84631942267082
-6.2200605835714295,-87.08084817,3.1773283699676114,-1.71061813875,3.0000017999999997,0.8467000000000002,74,14,306.7440759544129,586.9339,mp-1247238,YMgCrS4,https://materialsproject.org/materials/mp-1247238,1.845539029455164,26.39765374524392,-21.97118211149666,-79.84276969305664
-6.6125955933333325,-19.83778678,4.1067543219137415,-0.7495963482533329,1e-05,0.0,139,3,46.75560308133014,115.6334,mp-10564,SrN2,https://materialsproject.org/materials/mp-10564,4.411763287312851,-57.12938353261761,-20.038432832518822,-67.65692334741472
-4.0891953177777784,-36.80275786,4.4333076780957015,-1.6981845847126438,0.0,3.278,225,9,345.9902574682145,923.7249037999999,mp-1238793,Cs2HfBr6,https://materialsproject.org/materials/mp-1238793,-0.6205795860759,14.162731997863698,-29.426777427518097,-70.49061462685725
-8.258883922954546,-726.78178522,4.954115997042008,-3.6871817653409096,0.0,4.6519,76,88,1195.8758312209786,3567.821920000001,mp-5974,La2Si2O7,https://materialsproject.org/materials/mp-5974,-20.321512871919087,-35.740776438640964,-18.7349762559497,-32.209858371650576
-5.7790969642857135,-80.90735749999999,5.023086985595811,-2.2771331437500004,0.0,1.9818,227,14,332.23362822652194,1004.998,mp-14304,Lu2MgS4,https://materialsproject.org/materials/mp-14304,13.086391172200479,8.608131216629525,-24.62514011517888,-77.78134034777348
-7.069273280555557,-254.4938381,6.277260121451049,-0.1838080799733327,6.007054225,0.0,62,36,667.2202474401845,2522.26232,mp-1247496,Mn4Te3N2,https://materialsproject.org/materials/mp-1247496,30.26942236714881,-16.725246268691908,28.518239220906953,-28.674275184764976
-6.323660330499999,-126.47320661,3.3520085777921813,-2.1350458579375013,0.0,1.1877000000000004,62,20,450.79556476755636,909.988,mp-7781,CaZrS3,https://materialsproject.org/materials/mp-7781,-0.2087374535418416,-2.723063565161504,-30.170479716279196,-36.45019392417084
-4.9758597869642855,-278.64814807,4.507854283859494,-0.5882557258419467,4.4625e-05,0.9152,7,56,1678.7044846532822,4557.1678956,mp-1195822,CsNb2PSe10,https://materialsproject.org/materials/mp-1195822,-0.2010773065683996,2.0660006241343694,-0.8886822622779743,-22.330544351221413
-6.046042631666666,-145.10502316,4.424986128207159,-3.9248996171266666,1.000017075,0.0,62,24,383.0816099692649,1020.8316512,mp-504644,KCeF4,https://materialsproject.org/materials/mp-504644,-13.016942685143386,-27.443446537336545,-38.0835690230054,-49.60786815423344
-4.827281423333334,-101.37290989,3.437533928728554,-1.7027583977976195,0.0,0.8703000000000003,189,21,474.0655701978391,981.378,mp-866580,Ca2SnS4,https://materialsproject.org/materials/mp-866580,-3.650167148734949,1.92693547579932,-9.546601137770491,-16.682622085861617
-6.185997372666668,-371.15984236,3.491910543205955,-2.222605416015667,0.0,5.6188,14,60,676.0077723070008,1421.5616799999998,mp-1198579,NdH3S2O9,https://materialsproject.org/materials/mp-1198579,-34.224289412224735,-25.36091395326037,-31.115847479749828,-32.925748855326034
-4.046762475,-16.1870499,3.5103349478598456,-1.0346202652812506,0.233907,0.0,166,4,104.98633808318459,221.9383,mp-558762,KSnS2,https://materialsproject.org/materials/mp-558762,14.496942932241435,5.758340141634506,-4.460259447433296,-4.298860558040646
-6.6211092723333325,-397.26655634,5.837372086971017,-2.4421112657708344,0.9294286083333332,0.0,62,60,1377.6275976004144,4842.84,mp-638813,CeErS3,https://materialsproject.org/materials/mp-638813,12.328255420046151,-6.420255487258352,-3.233555566511638,-13.167421346376916
-7.866513486759258,-849.58345657,3.258871698443774,-3.0345913140856484,0.0,5.1768,143,108,1113.730133669436,2185.7382,mp-1020670,SrB4O7,https://materialsproject.org/materials/mp-1020670,-19.055684612223878,-29.209716066906537,-3.2534540709571167,-18.576232726723628
-6.975846737692307,-90.68600759,5.208628890837637,-2.2297003820969232,2.6e-06,3.1499999999999995,166,13,232.0491447571069,727.8708,mp-1228095,Ba3Mo2(NO3)2,https://materialsproject.org/materials/mp-1228095,-7.375593623461466,-27.541182502044073,-25.892058595052923,-57.939169204127424
-4.87443217,-116.98637208,4.790058673804558,-3.0181486538824998,3.99999945,4.0759,11,24,388.5978603253962,1120.9652448,mp-556292,Ba2Ni2ClF7,https://materialsproject.org/materials/mp-556292,-12.96295418987036,-22.05133079506839,-14.063422414494159,-19.27878497700372
-5.830606781964287,-326.51397979,6.4553531939276425,-2.0171827157142865,0.0,2.2202000000000006,36,56,1378.7312223134604,5359.8240000000005,mp-1225956,Er2PbS4,https://materialsproject.org/materials/mp-1225956,7.944351970375795,-5.1545834213445385,-6.966084990617801,-12.954975353243759
-5.571075256666667,-33.42645154,3.535268059976753,-0.3758832308292277,1.74479425,0.0,129,6,160.9962940605011,342.759214,mp-21413,RbMnP,https://materialsproject.org/materials/mp-21413,-8.335674349053109,7.698911362480161,11.801160850536487,-51.18971763575762
-8.862817203846154,-115.21662365,7.074594799833188,-3.866008102307692,3.9999987,0.0,71,13,216.05783506909415,920.49726,mp-753957,Ce4ThO8,https://materialsproject.org/materials/mp-753957,-24.00943745961175,-70.27633924876636,-7.980610641806643,-78.49501468033343
-3.4975928885714285,-48.96630044,5.596876120404788,-0.5355155822916667,0.006769800000000001,0.03710000000000013,227,14,362.48734816629616,1221.77,mp-1001017,Zn(InSe2)2,https://materialsproject.org/materials/mp-1001017,22.783844869239417,4.858995683272166,-21.49557937078932,-73.84898627768489
-6.272335764285714,-87.8127007,4.887402788888248,-1.5083033705357138,0.9469991,0.0,44,14,322.98201136611726,950.62094,mp-1247170,LaMgWS4,https://materialsproject.org/materials/mp-1247170,-2.2183887937944107,4.305266607660818,-40.87073792197132,-44.072683238210494
-4.356868147884616,-679.67143107,5.159862261528908,-1.5291780848033336,0.0004545,3.3694,29,156,2877.9464773300374,8942.7632,mp-683967,Cd7Te7Cl8O17,https://materialsproject.org/materials/mp-683967,-41.793892448932546,-47.6971426232531,-9.406820850999582,-50.27869438455534
-5.5111946271428565,-38.57836239,5.521099807893966,-0.6654724912244906,6.7e-06,0.0,139,7,142.58002308902869,474.06204800000006,mp-28895,Ba(P2Pd)2,https://materialsproject.org/materials/mp-28895,9.72174971872202,-30.490676438820888,1.7117238690016985,-50.90697641518278
-7.722028785625,-247.10492114,5.583213819050091,-3.1662675610937487,0.0010732,2.6298000000000004,156,32,520.1343479562566,1748.84252,mp-1228195,Ba7Nb4MoO20,https://materialsproject.org/materials/mp-1228195,-11.762589651657095,-83.69165652909696,16.823274131809352,-72.62509111741751
-4.6774425625,-93.54885125,4.5198693947891275,-1.8924430441034483,0.0,1.6246000000000005,59,20,600.6260301169506,1634.8614189999998,mp-769228,Cs5YO4,https://materialsproject.org/materials/mp-769228,-4.181716583768828,-25.1455475403727,-25.634459118032943,-34.459321620040186
-8.03233715,-128.5173944,5.756190521322012,-1.8450487469140635,13.999998999999999,0.061200000000000365,55,16,342.4445509423625,1187.07,mp-561122,Gd2SnS5,https://materialsproject.org/materials/mp-561122,13.584166492066855,-5.608362782635203,-0.7784925657499576,-13.103748285431775
-6.2377459165,-249.50983666,4.1171700532599065,-4.273296445333,0.0,6.3653,14,40,569.7865594245912,1412.7389375999999,mp-14926,Sr2ScF7,https://materialsproject.org/materials/mp-14926,-14.425467164204855,-26.153560624916054,-15.932271248173492,-16.976398028356897
-6.32077712125,-50.56621697,6.42846871319667,-0.12655939107421774,16.358196300000003,0.0,187,8,176.04154762429576,681.51218,mp-1221977,Mn4Te3Se,https://materialsproject.org/materials/mp-1221977,22.071295047171517,8.567325322705955,56.619309773899204,-23.67223869520241
-8.34362615875,-266.99603708,5.033449756134508,-3.792304135468751,0.0,4.5002,15,32,509.2261994819235,1543.5737600000002,mp-752717,La2SiO5,https://materialsproject.org/materials/mp-752717,-11.47723443673404,-58.763347250899194,-32.33697874247363,-45.87573583908028
-5.4985572283333335,-131.96537348,6.453787319387133,-0.19137918833333364,2.517576825,0.0,164,24,632.3246698302235,2457.5688,mp-685055,CrTe2,https://materialsproject.org/materials/mp-685055,20.27405372399113,10.794458064821859,27.482435242485717,-40.622509034142524
-6.3364339195,-126.72867839,4.427540979154927,-1.7097194506562503,0.0,0.6540000000000004,70,20,490.25008171319786,1307.167296,mp-1205354,Sc2Se3,https://materialsproject.org/materials/mp-1205354,20.54262513346692,10.94468080397459,28.831412428377643,-42.131805083564146
-8.579345661428572,-60.05541963,5.786263329056817,-2.4342104394300006,0.0,3.8751,164,7,106.96957641464752,372.7429,mp-9499,Sm2C(NO)2,https://materialsproject.org/materials/mp-9499,-9.923090086592513,-58.97798824583705,6.7648774061958274,-56.736822931043136
-7.433704869166667,-89.20445843,6.700531045499308,-3.021534256666667,1.000003675,0.0,62,12,171.4000926452913,691.6257999999998,mp-1101864,PrO2,https://materialsproject.org/materials/mp-1101864,-8.966661462628831,-61.63626851865406,-10.21404001077931,-66.7522496443562
-6.874263731875,-219.97643942,6.6722807557650174,-2.307857498164063,5.3975e-05,1.1735999999999995,62,32,653.7009283590343,2626.6628,mp-1199006,Tb2HfS5,https://materialsproject.org/materials/mp-1199006,13.904701533405952,-5.996175893601477,-0.3978371843091917,-12.49849676337004
-6.283390893392857,-351.86989003,3.810826544311088,-3.899972124480953,1.000000025,0.05630000000000024,14,56,803.4359990278102,1843.832128,mp-1208720,SrTiF5,https://materialsproject.org/materials/mp-1208720,-14.870972860044887,-25.004645058526766,-15.408792881056952,-17.964101297933148
-6.582208311785713,-184.30183273,9.222019737902015,0.2765854260714288,3.48961555,0.0,63,28,598.3165404601065,3322.8288,mp-1120823,V4Bi3,https://materialsproject.org/materials/mp-1120823,39.84938635748021,-7.71054821828548,6.941022960580809,-10.64269857439972
-2.574018242222222,-23.16616418,4.794673454018907,-0.7869874091570878,4e-07,0.5993000000000002,139,9,392.619628097829,1133.6577238,mp-29806,Cs2PdI6,https://materialsproject.org/materials/mp-29806,2.7279229296241065,6.560643821766893,-28.10348369262809,-55.52227233874861
-5.60978654375,-89.7565847,5.875923851080384,-1.7082387620312511,0.0,1.6603,19,16,330.76277366759604,1170.4252800000002,mp-560611,HoCuS2,https://materialsproject.org/materials/mp-560611,16.16099980412044,-12.993211928369801,-10.403453684537109,-16.715741111176555
-7.2566098671249994,-580.52878937,2.9722492054571545,-3.4079417605892863,0.00058505,4.792599999999998,19,80,1078.066143034003,1929.6632960000002,mp-1227400,Ca5Si(PO6)2,https://materialsproject.org/materials/mp-1227400,-18.910867893876716,24.522899772777514,-12.396256626189011,16.488140697475288
-4.18468438,-33.47747504,4.428162286325804,-0.09541706607142864,0.0,0.6438000000000001,122,8,185.24645909700516,493.99704800000006,mp-3668,CdGeP2,https://materialsproject.org/materials/mp-3668,-0.2540439840487044,9.862438813133394,-16.466251762954524,-71.96836030861719
-6.778370130769232,-88.11881170000001,4.369682684099563,-2.6159940284615386,2.0,0.0,166,13,188.04876370830158,494.8474,mp-18833,Sr3Cr2O8,https://materialsproject.org/materials/mp-18833,-9.917894018366644,-80.78098985125064,18.96481834014771,-73.06204404314191
-3.612396398214286,-101.14709915,5.4971701201279854,-0.6029607869345242,1.4075e-05,0.04830000000000023,62,28,688.4586607832408,2279.124,mp-1232047,Mg(InSe2)2,https://materialsproject.org/materials/mp-1232047,22.210630818456377,5.100118838932397,13.615990585331721,-9.093846255604776
-2.6956094286666663,-40.43414143,6.762325483949425,-0.32922377258333313,7e-07,0.0,119,15,435.6374837205442,1774.076,mp-1212695,Ga2Hg5Se8,https://materialsproject.org/materials/mp-1212695,15.192812006953194,14.891951974789768,5.658994112137003,-16.237015688620104
-6.637174280499999,-132.74348561,5.888519991021145,-2.4505697329375,0.933979375,0.0,62,20,449.8524152698674,1595.244,mp-20775,CeDyS3,https://materialsproject.org/materials/mp-20775,13.506681984331966,-6.457238216609946,-2.144988641357016,-12.956044093930194
-7.370490347142857,-515.9343243,2.5974762512005443,-2.3703025341666666,4.99999935,0.0,4,70,826.1508816599929,1292.2956,mp-1198355,Sr2(BO2)11,https://materialsproject.org/materials/mp-1198355,-25.76104199192782,-2.5898866391244764,-33.567109995160926,-33.593840500891154
-4.078384179259259,-220.23274568,4.73848295776017,-0.6105897677160493,1.31820105,0.0,20,54,1236.7904657273432,3529.282,mp-530464,Ag5(Sn3S8)2,https://materialsproject.org/materials/mp-530464,5.573300906512334,27.42294079887484,-22.715735250457172,-80.33737262150652
-3.7822936639999996,-37.82293664,4.483151936447829,-1.306420918691379,2.0,0.0,225,10,351.5691866857954,949.17255308,mp-1112532,Cs2NaTaBr6,https://materialsproject.org/materials/mp-1112532,-0.15647792892842666,14.074685273173134,-29.823732783706326,-71.0203316649566
-5.697779358928571,-159.53782205,5.7943126637370455,-2.1839462883928573,5.870000000000001e-05,2.3312,122,28,558.3546378380421,1948.332,mp-1232106,Er2MgS4,https://materialsproject.org/materials/mp-1232106,19.210768447622,-3.403744999094647,7.4439527939406025,-9.115515346221557
-5.54617098375,-44.36936787,3.3379988939570087,-1.747122553211207,5.0,2.0204,15,8,172.4330576656988,346.62319999999994,mp-768845,RbFeO2,https://materialsproject.org/materials/mp-768845,-21.40982926387246,-14.841002379092313,-10.357985542636802,-23.12734771374225
-5.833104129464287,-326.65383125,6.3560536352390375,-2.0166370375,0.000453975,2.1937999999999995,36,56,1390.5369088928228,5322.565119999998,mp-1224555,Ho2PbS4,https://materialsproject.org/materials/mp-1224555,7.9545729907028475,-5.133809772544455,-7.024132961225638,-12.877356643984774
-6.074478345555557,-54.67030511,5.577339358031012,-1.2975997378200006,14.879593,0.0,139,9,212.87277722268388,714.986935,mp-18787,Ba2Mn3(SbO)2,https://materialsproject.org/materials/mp-18787,18.428637882144503,-36.32049130734351,10.137836140502607,-19.923798468319216
-3.2550060291666667,-39.06007235,3.7844822674919625,-0.8610969341666662,0.0,2.1528,112,12,359.9220763691916,820.2870772000001,mp-1102536,AlCuBr4,https://materialsproject.org/materials/mp-1102536,-0.9394521457553414,9.174381850047595,-16.2787431444228,-71.74495587265348
-6.517565492386364,-573.54576333,2.9947894981361136,0.2908530157386364,3.07e-05,1.2305,2,88,1640.1146386352514,2957.954,mp-1214506,C15Br7,https://materialsproject.org/materials/mp-1214506,-6.285507852261548,-24.14718210642875,-8.208330707473168,-31.04123204310649
-3.9685382828125,-126.99322505,3.083260407994713,-1.270780850177084,0.0,2.0103,15,32,939.4584842427562,1744.3704,mp-505412,KInS2,https://materialsproject.org/materials/mp-505412,-7.220323056537937,-0.05574546217715201,-31.622675559739424,-34.46304308681519
-7.274742412708334,-349.18763581,4.086598299940192,-2.611582056903736,1.095e-05,3.611,60,48,803.3278053408039,1976.9954,mp-1209254,RbY(MoO4)2,https://materialsproject.org/materials/mp-1209254,-51.28226739089625,-52.74771799200094,-25.782780154249078,-56.55244125551664
-4.381962625833333,-157.75065453,8.024159899555924,-0.3420983136111112,0.00277105,0.0,1,36,888.3458501597522,4292.719999999998,mp-1219556,Sb2Te4Pd3,https://materialsproject.org/materials/mp-1219556,28.30206319217679,24.824064732375344,38.36148114687215,-23.60104067367837
-6.072886228333334,-36.43731737,7.037595389410727,-0.5774462916666678,0.0073809,0.0,164,6,184.6498820181539,782.57188,mp-1215227,ZrTaTe4,https://materialsproject.org/materials/mp-1215227,21.457061682571968,1.4814794296754068,-0.3998169273980788,-16.025428554758868
-4.46361402367647,-303.52575361,4.507447186182589,-0.38889075133271983,0.0012468,1.0757,14,68,2548.682753912416,6918.26728,mp-645655,TeMo3Se7I6,https://materialsproject.org/materials/mp-645655,-2.8692225252801973,2.841312900584513,-39.15375054255518,-33.78889765852412
-5.120865588035714,-286.76847293,4.1524651440699865,-3.1176086781714285,4.000065925,1.8649,14,56,772.7366542514243,1932.361688,mp-1208712,SrCoF5,https://materialsproject.org/materials/mp-1208712,-14.794767903477714,-24.54688970443409,-15.28388802940135,-18.194724277100796
-7.947877727000001,-79.47877727,4.277627616835623,-0.2928008271666656,0.01063345,0.0,131,10,104.46177294553664,269.0985,mp-15955,Y(BC)2,https://materialsproject.org/materials/mp-15955,6.606519116283258,-56.933469801582525,7.445121383534413,-51.24699873672235
-2.110447791666666,-12.66268675,3.925632986878136,0.06542483880208305,0.0,0.8854,136,6,281.5218936749633,665.53788,mp-861871,SeI2,https://materialsproject.org/materials/mp-861871,11.020795662079484,11.354213476849944,-11.12500506351992,-13.677636138245218
-4.3246148658,-216.23074329,5.3945122505982495,-0.3266208317999997,0.00107775,0.9773,15,50,1876.744010125829,6096.8868,mp-651961,Nb4Te17I4,https://materialsproject.org/materials/mp-651961,14.724901960916247,0.7030164260124984,0.2586002007460182,-16.827598680697218
-5.545911100357144,-155.28551081,5.263867925639055,-2.079436334821429,0.0001699,2.3883,62,28,666.4871887445763,2112.748,mp-1192811,Er2ZnS4,https://materialsproject.org/materials/mp-1192811,4.793733706599526,-0.9921309258053456,-12.069933624050465,-14.619284002069245
-5.843324175,-46.7465934,6.329917672615641,-2.0749053515625,0.0,0.5760000000000005,129,8,154.8993365422929,590.47094,mp-549589,LaZnAsO,https://materialsproject.org/materials/mp-549589,19.988320946769214,-38.74834220049768,19.94962143210681,-41.59974126027283