energy_per_atom,energy,density,formation_energy_per_atom,total_magnetization,band_gap,sgr,num_sites,cell_volume,weight,mp_id,formula,URL,tsne_cry_0,tsne_cry_1,tsne_xrd_0,tsne_xrd_1
-5.34184592,-48.07661328,3.1025831152680645,-3.148906870793333,1.0000002000000001,1.9324,162,9,95.70331646098408,178.8139192,mp-753667,Li2VF6,https://materialsproject.org/materials/mp-753667,-39.434281805255615,65.45446870880255,-27.34309569502304,72.59443333492496
-3.2825615965,-65.65123193,1.0115184145080132,-0.21122496767199975,0.0,2.3832,62,20,124.61286806522469,75.908008,mp-24342,LiBeH3,https://materialsproject.org/materials/mp-24342,31.794799958065607,63.357911960221024,60.11404571480778,57.00398854676387
-5.3125556805555565,-95.62600225,7.734841067657952,-0.3145341083333335,0.0,0.0,65,18,294.31558588981284,1370.9309,mp-1072,Nb5Ga13,https://materialsproject.org/materials/mp-1072,58.365908408492686,48.07975697706117,75.09246637835516,6.773151175217265
-9.715453845,-38.86181538,8.910971406844562,-0.5355688700000005,2.57e-05,0.0,225,4,71.09500238953812,381.51800000000003,mp-1188003,Zr2TcRu,https://materialsproject.org/materials/mp-1188003,100.84116625512216,5.120543157483589,68.54809664646457,60.65049570124894
-9.1228565975,-36.49142639,7.378128357070906,-0.1816729287500003,0.0010527999999999998,0.0,65,4,69.05017881464453,306.80464,mp-1220588,Nb3Si,https://materialsproject.org/materials/mp-1220588,65.64628388061007,23.479254368655056,53.27258249305314,26.230408877266196
-7.271101865,-14.54220373,11.613340439998504,-1.0111601736899996,2.5e-06,0.0,221,2,25.9183628533124,181.2657,mp-1002229,ErN,https://materialsproject.org/materials/mp-1002229,85.22326879729016,32.544301751289005,55.291399971230774,49.63638872581045
-9.514344545,-57.08606727,12.220233701268844,-0.4475399811979166,0.0,0.0,129,6,119.81083478180278,881.71152,mp-8732,Ta2Se,https://materialsproject.org/materials/mp-8732,63.48385367735045,16.750455940956424,63.34714364322177,19.451440476486415
-3.103703167857143,-43.45184435,2.3382646268106244,0.13819559428571435,7.92e-05,0.0,2,14,257.7542418743232,362.95300000000003,mp-1074483,Mg4Si3,https://materialsproject.org/materials/mp-1074483,45.41732611030631,23.641614794839693,58.10720227958964,7.5822264946060605
-5.869342997083333,-140.86423193,4.119587480506627,-1.9219441602883325,16.000000099999998,0.8933999999999997,1,24,212.52814861539767,527.2554749999998,mp-1174884,Li7Mn2(CoO4)3,https://materialsproject.org/materials/mp-1174884,9.24299674937834,89.15460377092127,6.1501006212966765,97.10508080161732
-7.1166616225,-28.46664649,6.031735800466637,-0.1914667462499997,1.7548912,0.0,225,4,72.2143128496679,262.311,mp-998982,Ti3Sn,https://materialsproject.org/materials/mp-998982,93.22439120261768,0.2930514624813445,70.71216249464248,50.51637855160025
-6.381022585,-25.52409034,7.383398449231625,-0.6896238475,2e-06,0.0,225,4,71.74856404954735,319.02185,mp-866165,YMgRh2,https://materialsproject.org/materials/mp-866165,93.64043216630456,0.3007843769361389,70.64451178562956,54.78183017164857
-7.797309144285713,-109.16232802,5.431234064617638,-0.07059161863904759,0.0200852,0.0,176,14,196.68314315536915,643.30447,mp-1246753,Mn3InN3,https://materialsproject.org/materials/mp-1246753,43.859473731634246,33.51887005794265,51.38385996432184,33.04130945538385
-5.932728651666667,-35.59637191,4.041158056538687,-0.9907405099305572,0.05356849999999999,0.0,194,6,92.04064194518078,223.994,mp-1072192,TiS2,https://materialsproject.org/materials/mp-1072192,54.46394046525511,45.55013398728995,75.81897186007551,6.5791908577025575
-8.92183963,-107.06207556,9.168282845587893,-0.3067265227777784,5.992006,0.0,164,12,162.910734498526,899.4739999999998,mp-1224401,HfTiFe4,https://materialsproject.org/materials/mp-1224401,66.33531554973584,49.180268902378614,72.40649309447059,18.59732426910372
-7.4752186925,-209.30612339,3.1304610016167,-0.6058129431457147,0.0,2.3141,159,28,297.6505967520171,561.1332,mp-568867,Si3N4,https://materialsproject.org/materials/mp-568867,5.382519444971938,60.16393307505592,3.1062706484885085,57.33663571823257
-6.678526593333332,-80.14231912,2.4764004451960666,0.0,0.0,1.4336000000000002,166,12,86.99120174815826,129.732,mp-160,B,https://materialsproject.org/materials/mp-160,5.740988591271119,58.262520170274584,1.206243664603084,54.687544371551034
-5.892265475,-47.138123799999995,3.0440474184914983,-3.8898270796425,0.0,7.6012,167,8,91.61924876154106,167.9534964,mp-468,AlF3,https://materialsproject.org/materials/mp-468,-38.36431024670452,76.9783265855702,-44.462392554875066,69.7482722503272
-7.611106225833333,-91.33327471,2.9883046084940283,-2.985057043333333,0.0,3.9664000000000006,1,12,133.55040922866664,240.3372,mp-556588,SiO2,https://materialsproject.org/materials/mp-556588,-80.03110757444941,30.333285417612252,-77.17194522341755,42.10485256021859
-9.6735630325,-232.16551278,9.699618465471977,-0.18977692706333235,0.0126031,0.0,4,24,299.28332763658426,1748.1878,mp-1224957,Fe3Mo6RhN2,https://materialsproject.org/materials/mp-1224957,63.07979590221115,41.64262405216878,74.80895492165041,5.843238947230168
-3.82765958,-15.31063832,16.576933717813148,-0.07790787000000021,2e-07,0.0,139,4,69.85167562023746,697.319707,mp-973839,PdAu3,https://materialsproject.org/materials/mp-973839,51.92276715363883,32.03051837187448,55.66189666028764,38.076503052120046
-3.444998175,-13.7799927,6.438214727649112,0.35908983999999977,6.720000000000001e-05,0.0,225,4,74.84138750698295,290.1738,mp-971701,ZnAs3,https://materialsproject.org/materials/mp-971701,100.958142986374,4.069766143320602,70.55699171923048,60.349551950967026
-5.6195120825,-22.47804833,8.526751613692097,-0.7593422595833328,5.5e-06,0.0,123,4,72.56455632289833,372.613912,mp-1219262,ScInPd2,https://materialsproject.org/materials/mp-1219262,95.42145305016294,2.2097469446901044,53.246314013123744,26.325192124070053
-5.697964316666668,-17.09389295,8.13206724993276,-0.6036725058333339,0.00016269999999999997,0.0,139,3,71.82516660606542,351.74547,mp-1063255,LaPd2,https://materialsproject.org/materials/mp-1063255,25.74009385970657,6.552054002916794,55.498213918876495,32.984681498631396
-5.783708568125,-185.07867418,4.183517798560344,-1.8483596047474995,17.999999300000002,0.35139999999999993,2,32,286.9767063075102,723.001465,mp-1175676,Li9Mn2Co5O16,https://materialsproject.org/materials/mp-1175676,12.433316819857106,89.25634840149807,6.807643884162246,93.98493301836714
-2.657026165714285,-37.19836632,5.294565878078012,-0.3111480603571429,0.00012409999999999998,0.0,160,14,375.9238603162458,1198.619,mp-1222490,Li4(CdSb)5,https://materialsproject.org/materials/mp-1222490,84.19386620448363,-4.297757936366333,65.64045190018895,43.79962248554136
-6.94926672,-27.79706688,6.011866467574732,-0.43571181499999945,3.9e-06,0.0,225,4,71.16137486136051,257.63482400000004,mp-862324,Sc2GaTc,https://materialsproject.org/materials/mp-862324,94.12235240145222,-0.4969420537768399,70.38459140446948,54.717158619862424
-5.909862695999999,-118.19725392,3.997195329964755,-1.952823960471,7.00000005,0.3027000000000002,2,20,178.37666470462574,429.38248,mp-1174188,Li3MnCoO5,https://materialsproject.org/materials/mp-1174188,3.0032492379380287,93.62226700067373,-4.133641802842591,85.25893930589051
-8.086583528,-40.43291764,7.1699872117844405,-0.18068108047599907,7.459440600000001,0.0,221,5,56.13114495619522,242.366835,mp-510380,Mn3CuN,https://materialsproject.org/materials/mp-510380,49.02814635203885,62.841068402212926,88.82767928631287,9.40270354368541
-7.93919593725,-317.56783749,3.778944416491784,-1.742797157951999,9.000000000000001e-07,4.197399999999999,164,40,352.18112306609237,801.4703999999998,mp-2948,Si2N2O,https://materialsproject.org/materials/mp-2948,5.357857171827757,61.38402996348219,8.611894952556714,50.504728442960776
-6.458304096545455,-355.20672531,4.186698880358509,-1.904113780959456,29.9999936,0.8603000000000001,1,55,573.3335280678454,1445.5395400000002,mp-771196,Li8Mn12Ni4O31,https://materialsproject.org/materials/mp-771196,0.2285361302473949,68.11854383989329,15.26411156152301,80.82598275133185
-7.741002285,-123.85603656,6.682683216925946,-0.6319110056249997,3.05e-06,0.0,38,16,291.49691615029843,1173.101928,mp-1219488,Sc2(NbGe)3,https://materialsproject.org/materials/mp-1219488,66.84752058290887,27.72361843484055,60.327745790373356,5.6565521213432195
-3.2417394875,-12.96695795,5.632967661041879,-0.2753989450000001,0.0,0.0,115,4,140.875776238785,477.8862,mp-1223798,InAgTe2,https://materialsproject.org/materials/mp-1223798,24.919885408356162,15.912526266624248,64.85898276077748,45.07156146992835
-9.964741035,-39.85896414,14.898057990597284,-0.6567126899999991,0.9718959999999999,0.0,225,4,67.4380420907061,605.0419999999999,mp-864890,Hf2FeIr,https://materialsproject.org/materials/mp-864890,94.97065856109032,8.985661582032296,61.76162755431629,64.99435990713997
-4.936644979285715,-69.11302971,4.560418616701578,-1.2597151671428588,2.0000002,0.0,12,14,149.79119573071702,411.3788,mvc-12638,Mg(NiO2)2,https://materialsproject.org/materials/mvc-12638,13.943895782315295,53.75629318543396,4.0686260917529555,49.115444434333604
-7.222468044285714,-101.11455262,5.5081457670211735,-0.02940586387714258,3.35e-06,0.0,176,14,164.62557472754912,546.07669,mp-1245483,Mn(NiN)3,https://materialsproject.org/materials/mp-1245483,23.20904522800515,51.32346563932355,29.74074353115789,11.522385571853695
-6.874480309375,-109.99168495,2.731978419115695,-3.1124231731250003,5e-08,3.9115,190,16,159.38400942541256,262.224292,mp-754739,CaBe3O4,https://materialsproject.org/materials/mp-754739,32.336325621631595,51.845413617212785,65.29235610489492,-12.513090325150658
-5.7867222128125,-185.17511081,4.18095140485177,-1.8513732494349997,24.869936499999998,0.0,1,32,287.1528612402655,723.001465,mp-1175930,Li9Mn2Co5O16,https://materialsproject.org/materials/mp-1175930,13.100897047326837,87.05367849380029,1.9163032550897279,94.5713342766773
-6.044118119166666,-72.52941743,9.28791105382872,-1.0462816458333333,4.975e-06,0.0,194,12,215.1670145096863,1203.496,mp-1212933,ErNiAs,https://materialsproject.org/materials/mp-1212933,54.05377657057873,-17.050128147432538,25.312733301567857,24.65446039685472
-6.294073585,-25.17629434,6.061237310336463,-0.4930935712499993,0.000718,0.0,225,4,70.24093447450508,256.390824,mp-862261,Sc2ZnRu,https://materialsproject.org/materials/mp-862261,94.07885547706505,-0.3356860117666832,70.34215224153212,54.709825798668795
-6.065157533333332,-18.195472600000002,10.757265664293078,1.094984546666667,0.0069436,0.0,216,3,67.58249291365662,437.811345,mp-631324,HfMnTl,https://materialsproject.org/materials/mp-631324,86.35880910801426,2.3746101865418487,57.67876689836515,69.83981467973696
-5.36118965,-64.33427579999999,3.844722540388564,-1.7393254477083342,2.9999999,0.0,12,12,104.35882269526049,241.62679,mp-1173894,Li2CoO3,https://materialsproject.org/materials/mp-1173894,1.4351732688826986,93.66990780708059,-4.8847345946087,83.38651872941081
-5.189887286666667,-15.56966186,10.149438967631069,1.1509861673333337,0.0003584,0.0,216,3,67.9190123484355,415.13018,mp-631314,KTaPt,https://materialsproject.org/materials/mp-631314,86.26044657145918,2.36299586902225,57.68282704941424,69.90105643102994
-5.179200971428571,-36.2544068,10.097155169896787,-0.30360416125850315,1.4e-06,0.0,123,7,110.34051698014905,670.941962,mp-1078079,AgPPd5,https://materialsproject.org/materials/mp-1078079,59.073721459787976,43.46338189394421,76.32197745784494,11.848591447389962
-3.44288847,-13.77155388,1.8629212063902891,0.30521471,1.8525e-05,0.0,139,4,96.20138103721891,107.9261544,mp-1239196,Al,https://materialsproject.org/materials/mp-1239196,31.89718851970705,36.323245562026784,61.76915378445325,-14.346915212111625
-5.738897465,-68.86676958,4.5618125516392105,-1.1350528466666665,8.9999993,0.0,160,12,131.27598637399453,360.639785,mp-771245,FeCo3O8,https://materialsproject.org/materials/mp-771245,-0.4822917521300178,70.7142285512962,4.353952128153504,57.71058047527257
-7.037910185632184,-612.29818615,4.064115264988674,-1.844825775136552,87.0000073,0.0,5,87,1003.1000211494464,2455.05466,mp-1177832,Li3Mn28O56,https://materialsproject.org/materials/mp-1177832,6.9366774598056855,69.7579186578121,15.640164459306511,82.83436863636427
-11.8074254175,-47.22970167,15.472965830429722,-0.24044775437499946,6.15e-05,0.0,225,4,68.79228672976808,641.00914,mp-1186767,Ta2NbRe,https://materialsproject.org/materials/mp-1186767,96.4714809781564,5.89965588944345,65.00883739439911,64.39830403477987
-3.58767849,-28.70142792,14.701262640486455,-0.1954364725,7.62e-05,0.0,194,8,139.58201489129752,1235.7624912,mp-1183223,AlAu3,https://materialsproject.org/materials/mp-1183223,50.704510041814366,34.52212571922696,54.96423986273162,34.446008195962094
-8.87115882,-106.45390584,7.691757560138888,-0.18595208833333388,3.803178,0.0,194,12,173.5629298232876,803.9582,mp-1215662,Zr2CrFe3,https://materialsproject.org/materials/mp-1215662,68.74108166709823,45.691076974714825,77.2380607248773,24.171603864938728
-5.78958346125,-185.26667076,4.241827534328426,-1.8542344978725,15.9999999,0.19890000000000008,1,32,283.03181798261636,723.001465,mp-1175766,Li9Mn2Co5O16,https://materialsproject.org/materials/mp-1175766,18.29876477731908,88.69904494330234,10.106990667543505,90.79080515911664
-5.958637170357143,-166.84184077,4.521207805733914,-1.650557635817144,15.9998258,0.8971999999999998,8,28,272.7973574335336,742.75492,mp-758046,Li4Mn3Co3(NiO8)2,https://materialsproject.org/materials/mp-758046,-2.6125517763464163,72.27143749225256,2.656869789922081,61.42956556453078
-8.3874039225,-33.54961569,12.193183962357216,-1.0852284925000006,1.39e-05,0.0,63,4,77.98219282708328,572.616,mp-1065995,ZrPt,https://materialsproject.org/materials/mp-1065995,59.51882532711185,19.689060604798566,51.75393145044758,14.507944874709404
-7.2925426825,-29.17017073,20.986538300630396,0.0542517237500002,0.0035448,0.0,166,4,61.359244548616154,775.482,mp-1220038,OsPt3,https://materialsproject.org/materials/mp-1220038,67.61023330216366,63.52828699477298,89.20734645997534,17.162964654369592
-9.256164075,-18.51232815,20.800590729140254,-0.005821023749998489,2.4299999999999998e-05,0.0,187,2,30.438971630437422,381.291,mp-1219500,RePt,https://materialsproject.org/materials/mp-1219500,67.60174886050507,63.55900107411921,89.62766827431486,16.671566851073976
-5.714226295,-91.42762072,3.9402707477037535,-1.882878009435,9.999999699999998,0.0,12,16,141.3909297586006,335.504635,mp-1173992,Li5Mn(CoO4)2,https://materialsproject.org/materials/mp-1173992,6.65161364140471,87.76684081508087,-3.52291771119731,95.0329136832485
-5.4143311175,-21.65732447,5.099038782088185,-0.4655723599999994,1.18e-05,0.0,225,4,72.68045744880541,223.180824,mp-862340,Sc2GaCu,https://materialsproject.org/materials/mp-862340,97.4626324786876,0.5220459081022919,73.42403530492024,54.85661909564909
-9.2398065,-18.479613,20.801432269660058,0.010536551250000414,2.05e-05,0.0,166,2,30.437740194655685,381.291,mp-1219507,RePt,https://materialsproject.org/materials/mp-1219507,67.60436161827825,63.5587081222606,89.42583753303506,16.90081312556351
-6.74788366,-20.24365098,5.722176776497967,-0.11670133444444512,0.0,0.0,139,3,46.22203553331518,159.28,mp-742,Ti2Cu,https://materialsproject.org/materials/mp-742,58.17832039404589,49.914281171787636,82.82905800439055,19.269775341773048
-5.92399843125,-47.39198745,5.658405499800804,-0.3668465075,4.7e-06,0.0,123,8,127.87508411215569,435.7434916,mp-1217893,TaNbAl6,https://materialsproject.org/materials/mp-1217893,46.50483611614973,37.99472820585775,5.221870963560641,-8.75476400892503
-7.316542028333332,-43.89925217,7.665033057941165,0.3245577516666671,5.9485769,0.0,194,6,99.08778034518312,457.38829000000004,mp-1221652,MnCrSb,https://materialsproject.org/materials/mp-1221652,50.0097883410866,39.029337534265025,65.34704965583569,9.428086283893693
-6.669281726,-33.34640863,6.02097045977646,-2.8595465047500004,1.0000001,0.0,221,5,59.7215616530293,216.5452,mp-975521,NdMgO3,https://materialsproject.org/materials/mp-975521,4.151649139674244,-96.22141757176551,55.69598777785996,-68.43180527719436
-4.5219404160000005,-22.60970208,15.917147889643203,0.02429765999999987,3.7119002999999995,0.0,87,5,87.6177235547706,839.8623759999998,mp-1070789,CrAu4,https://materialsproject.org/materials/mp-1070789,51.18638750583861,34.082946223027314,55.99144884496372,35.93910837073335
-11.07933281,-44.31733124,15.219342772177978,-0.40163538937499865,1.7e-06,0.0,225,4,69.95808303804387,641.187,mp-973443,Hf2ReTc,https://materialsproject.org/materials/mp-973443,96.7384164962516,4.879271570390553,65.56441590168934,64.40011428174392
-3.987241798913044,-183.41312275,2.7005345137771917,-0.15797584992753608,0.00010045,0.0,227,46,804.6691576768408,1308.6333895999999,mp-684031,Mg3(TiAl9)2,https://materialsproject.org/materials/mp-684031,55.27563855240052,48.752566844581345,68.57983760923781,16.215254671170896
-9.471093081666666,-227.30623396,9.67141883028042,-0.16803997372999882,0.00934345,0.0,4,24,301.3628166881242,1755.2168,mp-1224938,Fe3Mo6PdN2,https://materialsproject.org/materials/mp-1224938,63.094200637865704,41.60750016302514,74.86697123121188,5.8044966466478085
-6.115261925714287,-85.61366696,4.692903317730798,-1.8347394307142864,2.0000003,1.4553999999999996,227,14,141.53094471662158,399.9852,mp-608016,Mg(FeO2)2,https://materialsproject.org/materials/mp-608016,0.8036209503279189,67.3968677428159,11.99791842335858,54.10734231187645
-4.727763475,-28.36658085,10.001927383694769,-0.3688680058333329,6.2e-05,0.0,216,6,87.2502090589547,525.53432,mp-1025134,HoCu4Pd,https://materialsproject.org/materials/mp-1025134,70.63676540685965,47.60971061597985,73.62155024703478,24.052509284705554
-8.002886771578947,-152.05484866,6.68343437946559,0.0138173584715784,5.788693,0.0,12,19,182.37899093337836,734.0496,mp-1246140,Fe10CuN8,https://materialsproject.org/materials/mp-1246140,26.896474472689746,53.814520205961905,69.49877228929024,-0.25655957679554586
-8.910464652083332,-213.85115165,13.114183356983785,-0.21864937875000004,0.6276623125,0.0,194,24,302.6907570450338,2390.51416,mp-570463,TaCo2,https://materialsproject.org/materials/mp-570463,69.28651068486818,50.10777155949978,72.30638336753121,18.565471746840625
-5.7637272528125,-184.43927209,4.177328488707167,-1.8283782894349996,23.8260493,0.0,8,32,287.4019033588752,723.001465,mp-1100670,Li9Mn2Co5O16,https://materialsproject.org/materials/mp-1100670,6.929796806275383,95.00971170413216,3.384307121961189,89.39895834554405
-3.74048436,-7.48096872,6.61332416531496,-0.04063431916666671,1.2e-06,0.0,225,2,47.641701110984116,189.7396,mp-21391,InAs,https://materialsproject.org/materials/mp-21391,26.01491634633501,7.122560350866372,12.159382699945107,-0.4992091997476202
-4.9179742168,-122.94935542,9.99916618074506,-0.3982204511083336,0.0001501,0.0,87,25,429.16091778347953,2584.2520000000004,mp-1190972,In4Pd17Se4,https://materialsproject.org/materials/mp-1190972,59.28244500004542,43.58535786369857,80.25658598954041,20.36046603906002
-8.7110404225,-34.84416169,8.94024511574487,-0.7638104825000003,2.5e-07,0.0,51,4,72.11426742606085,388.259,mp-1017545,ZrRh,https://materialsproject.org/materials/mp-1017545,100.83500327054008,4.645222934948867,69.31019910762568,59.61605308653798
-10.6831209,-32.049362699999996,11.73007086462646,-0.13772032916666888,0.0004261,0.0,42,3,46.723418801781314,330.05487999999997,mp-1220369,NbVRe,https://materialsproject.org/materials/mp-1220369,67.14727072747264,28.04434306096128,76.64000180929703,5.090111137276414
-2.82791464,-16.96748784,7.702430841795829,-0.19001110222222226,5.7000000000000005e-06,0.0,191,6,135.16424080150622,626.961,mp-2410,SrAg5,https://materialsproject.org/materials/mp-2410,46.44461616456954,13.58151398598594,45.78392681544364,31.13714272292533
-5.8951640975,-117.90328195,4.002224482569587,-1.9381253619709995,7.0000004,0.4725000000000002,12,20,178.15251848997752,429.38248,mp-1174102,Li3MnCoO5,https://materialsproject.org/materials/mp-1174102,3.5579823350011823,93.61465269287524,-0.5811985055258031,91.84610810848345