energy_per_atom,energy,density,formation_energy_per_atom,total_magnetization,band_gap,sgr,num_sites,cell_volume,weight,mp_id,formula,URL,tsne_cry_0,tsne_cry_1,tsne_xrd_0,tsne_xrd_1
-3.86661578375,-30.93292627,7.921891293929912,-1.972866131845,0.0,3.0045,39,8,187.29569756632145,893.5268127999999,mp-558134,TlF,https://materialsproject.org/materials/mp-558134,-26.886187947987274,-64.1635183762085,-20.230113277323717,-67.74022224395603
-3.764089973916666,-451.69079687,4.273373794728252,-0.7074348895822558,0.0,1.4702,14,120,4719.161699070379,12144.696060799999,mp-1204289,Cs4BiAs3Se7,https://materialsproject.org/materials/mp-1204289,-1.4356527259581189,-5.400842615843503,-21.47079701636199,-32.073518754670275
-5.80241823625,-835.54822602,3.6045705683801104,-3.076373900785,3.0000917,2.8564000000000003,14,144,1837.0707146798234,3987.7719648,mp-1198080,Sr5V3H6(O3F8)2,https://materialsproject.org/materials/mp-1198080,-14.946499080014044,-25.600046087813038,-10.875676802513054,-15.083422889997282
-6.284829765357142,-175.97523343,4.783934250480729,-1.1023612814880954,3.0000182,0.0,2,28,647.8611295248555,1866.4572,mp-1239244,HfCrAgS4,https://materialsproject.org/materials/mp-1239244,-6.9996233218934485,-1.7286702486098486,-33.758464438078214,-47.536348778204506
-8.585047406842103,-163.11590073,6.370525095868998,-3.8885184693421055,0.8482854999999999,0.0,12,19,304.7563160823379,1169.17321,mp-756286,La3Ce4O12,https://materialsproject.org/materials/mp-756286,-19.410417526907942,-69.10078452450115,-8.076007477581719,-67.64801851809005
-5.88691176,-105.96441168,3.648009711629709,-1.095111534295977,14.99999975,0.4763999999999999,72,18,508.7982210358307,1117.7700776,mp-2884,Cs2Mn3S4,https://materialsproject.org/materials/mp-2884,-7.545870708810325,-11.12719965058443,-26.2251416646218,-33.65634379415062
-4.45314989090909,-48.984648799999995,6.53543939010696,-1.692578873494319,0.0013210000000000001,0.0,121,11,232.89558686040988,916.615,mp-1215747,Yb4S7,https://materialsproject.org/materials/mp-1215747,13.976687134424873,-4.060790957890152,3.3559649134887493,-9.638671983413591
-6.63305504,-86.22971552,5.0931679114715145,-2.4375242147630765,4.0000001,1.586,166,13,211.87306535641534,649.85229,mp-19188,Ba3Mn2O8,https://materialsproject.org/materials/mp-19188,-10.058687310505727,-31.527967663254792,16.638771823010675,-72.40196534907108
-4.434731258,-44.34731258,3.7027094551633857,-0.8417903391562497,0.0,1.8055000000000003,9,10,260.8664223064312,581.6861544,mp-11674,Al2Se3,https://materialsproject.org/materials/mp-11674,-0.828596656482353,9.329862830579108,-14.807355675257487,-71.42591143619765
-3.5139925130000003,-35.13992513,2.97587629432068,-1.5018094818500003,0.0,3.0712,225,10,331.0888781829479,593.3492198399998,mp-1113373,Na3ScBr6,https://materialsproject.org/materials/mp-1113373,-0.2820026422369369,13.198634865339761,-28.66045906211433,-73.70761906466738
-8.258721111136364,-363.38372889,4.928313051117739,-3.687018953522728,0.0,4.553600000000001,2,44,601.0685121335873,1783.9109600000004,mp-18639,La2Si2O7,https://materialsproject.org/materials/mp-18639,-20.346738550484677,-35.743709165975474,-18.89046719750057,-32.147996413119024
-3.9186908609375,-125.39810755,5.6331345696806014,-0.9723583090625004,0.0,0.0,62,32,1216.1045792645893,4125.456,mp-583630,Ba2SnTe5,https://materialsproject.org/materials/mp-583630,6.175263695964383,-31.574969865980638,-1.3565820932151738,-31.68063065914673
-3.1669094089999996,-63.33818818,4.2622886347456665,-0.7343469963500006,4.2000000000000004e-06,0.0,36,20,732.2720864155838,1879.6035,mp-1224513,K2PtI5O2,https://materialsproject.org/materials/mp-1224513,-1.7877946942533256,5.001171070109094,-34.49455429613652,-30.62615422720827
-4.9257811375000005,-98.51562275,3.292510059935449,-1.569526732937501,0.000554025,0.0,12,20,527.3515953213715,1045.6306,mp-1237949,PrMgS3,https://materialsproject.org/materials/mp-1237949,-2.0767203473332367,6.082558350516456,-36.225609388742825,-32.70409817947961
-5.863315571999999,-234.53262288,5.574342701557174,-2.0945738845208326,0.0,0.9908,58,40,903.5446114296317,3033.152,mp-21604,Sm3InS6,https://materialsproject.org/materials/mp-21604,12.669700282374873,-5.878925242190625,-3.1721155826592566,-14.311399783568394
-7.039172369285715,-98.54841317,3.6105680243782214,-1.5415339444642868,5.00000195,0.0,74,14,293.4679903632836,638.0977,mvc-16616,Y(VS2)2,https://materialsproject.org/materials/mvc-16616,2.740712754143457,27.366138749268174,-20.396527234193265,-80.43998312472759
-7.7009258180555555,-277.23332945,4.860031671327115,-3.5179994418055553,3.75e-07,2.8133000000000004,62,36,607.5795179195338,1778.251296,mp-770936,Ba2Sc2O5,https://materialsproject.org/materials/mp-770936,-11.729964924562175,-82.18115211868668,13.334764727603847,-71.79396897692912
-7.469950099666666,-448.19700598,2.8251537626666114,-3.448578592916667,0.0,4.707999999999998,15,60,819.3155658361119,1393.9404,mp-561086,CaSiO3,https://materialsproject.org/materials/mp-561086,-17.428632020252266,31.53129258757542,-16.98275538509104,-7.951253048751178
-8.336103391,-166.72206782,6.1412660329868745,-2.2084804554375013,7.000533375,0.015200000000000102,62,20,461.4470808276571,1706.596,mp-1190059,EuHfS3,https://materialsproject.org/materials/mp-1190059,8.555449218341836,-4.93115202985645,-7.0283748492370846,-12.005926244472134
-4.142111813333334,-12.42633544,4.357751756449494,-0.3928494116666664,0.0,0.0,164,3,70.6314201860588,185.358,mp-1009654,CaGe2,https://materialsproject.org/materials/mp-1009654,33.28139290456592,-3.750989293551384,16.065547610043787,15.53896760563496
-5.787478564285713,-81.0246999,4.2566254926553055,-1.9375071951785716,3.9999915,0.0,166,14,330.642155436846,847.5680449999999,mp-1246588,Dy3Mg2MnS8,https://materialsproject.org/materials/mp-1246588,12.616495967783171,8.156369944851937,-23.771921893557096,-78.77421925124669
-6.85917795875,-219.49369468,6.7958455710178045,-2.298276922539064,1.7225e-05,1.2057000000000002,62,32,648.8026905958733,2655.26,mp-1198001,Dy2HfS5,https://materialsproject.org/materials/mp-1198001,13.932180428409618,-5.946860197848762,-0.35647340764874336,-12.588323805657566
-4.703269569090909,-103.47193052,6.7331733792260495,-1.1035313453796038,0.0,1.2526999999999997,63,22,520.9671425401584,2112.4237438,mp-581749,CsTm2Cu3Se5,https://materialsproject.org/materials/mp-581749,31.929896128451468,-3.55264479808452,2.952445842570812,-21.29641391112105
-4.68863797537037,-253.18645067,4.222639001832548,-1.1639154649282406,7.245e-05,0.6542000000000001,15,54,1624.239753618256,4130.33236,mp-1211937,K3Nb6SBr17,https://materialsproject.org/materials/mp-1211937,7.421447641405729,1.2794716531272254,-1.2926246573817564,-22.394721396879998
-3.596536734,-17.98268367,3.7523170079252672,-1.3955314138663797,0.0016737000000000002,2.4973,119,5,119.21302457740032,269.38545189999996,mp-1225887,CsLiZnS2,https://materialsproject.org/materials/mp-1225887,-7.57137168165084,-11.105429723820153,-20.014218326966915,-53.61136923226138
-7.427426546923077,-193.11309022,3.5446471965018738,-3.1032430289194144,0.99999995,0.3626000000000005,2,26,342.45430446365384,731.015448,mvc-2770,SrCaTi(PO4)2,https://materialsproject.org/materials/mvc-2770,-24.830921533321884,-33.977372148847515,-0.8329989185817354,-27.102251347947302
-3.634257182,-18.17128591,2.759770477196668,-1.3902630082250007,0.0,2.4458,119,5,105.6445179538947,175.5783,mp-774907,KLiZnS2,https://materialsproject.org/materials/mp-774907,-8.241363657461259,8.731122817912228,16.66486026049764,-42.72629642172954
-2.9653707775,-35.58444933,5.6380989502878895,-0.1561950224999992,0.0,1.6308000000000002,156,12,336.5500783967624,1142.70282,mp-570136,CuI,https://materialsproject.org/materials/mp-570136,15.739975434348516,14.351283360487516,4.6293392328112635,-16.308322890523332
-4.847332082352942,-164.8092908,5.901100381882326,-0.1602381129411767,0.98723225,0.0,15,34,1142.3109830165972,4059.45998,mp-28798,Nb4Te12I,https://materialsproject.org/materials/mp-28798,14.826068003128315,0.6500541267933816,-14.443446055578216,-5.853168090894794
-7.305226562714286,-511.36585939,2.48368300805544,-2.481616422020097,5.9980264000000005,0.0,9,70,843.9561244444596,1262.31268,mp-1209237,Sr2B11HO21,https://materialsproject.org/materials/mp-1209237,-25.7251293295337,-2.549438164439119,-33.569697115484786,-33.59804699697585
-7.916143034444443,-71.24528731,3.1820244435898477,-2.179659900771944,0.0011163,1.4285,12,9,158.6590845121202,304.032048,mp-1246833,Sc4S3N2,https://materialsproject.org/materials/mp-1246833,9.264117040326203,29.8538798264946,21.650041949847846,-47.576551457911556
-5.1347592656097545,-421.05025978,3.9565772568885045,-0.5779688481097557,4.0000064,0.0866,227,82,2320.51359676465,5529.10296,mp-1179521,Ta6Cd(Br8O9)2,https://materialsproject.org/materials/mp-1179521,-4.1189592280449565,3.53153489053831,-38.94216900057268,-35.27701728945792
-6.5086999604999995,-130.17399921,5.929369181635697,-2.4663931574375013,0.99795615,0.0,11,20,467.2873115066008,1668.5659999999998,mp-1189064,Ce(ErS2)3,https://materialsproject.org/materials/mp-1189064,8.638586756958402,-3.015487696887962,-5.101483377465462,-14.237562750373813
-6.791317314680851,-319.19191379,4.675319165981881,-2.948372868092553,1.0040923000000002,0.15010000000000012,6,47,1055.1533353247387,2970.829648,mp-1216262,Y16Se16F15,https://materialsproject.org/materials/mp-1216262,16.076885375597232,4.922885840161191,5.235780118539626,-7.623188010111577
-7.1624564263636366,-157.57404138,4.523144069999896,-3.11797230689394,0.0,3.1069,58,22,388.8536229006724,1059.1988,mp-779608,Ba3(BO3)2,https://materialsproject.org/materials/mp-779608,-24.186334071768712,-23.29195668557923,-8.665935613025143,-22.427711385589014
-3.84728939375,-30.77831515,5.018409864991116,-0.643974351080729,0.0,0.6022999999999998,9,8,191.00012975018186,577.2324,mp-1224820,GaAgSeS,https://materialsproject.org/materials/mp-1224820,13.53456480307432,15.166503433444436,-16.059568623137167,-72.27444042113663
-5.5210280649999985,-33.12616839,8.405141635920545,-0.3374116049999998,0.0,0.29529999999999923,58,6,140.77103501802128,712.54,mp-267,Te2Ru,https://materialsproject.org/materials/mp-267,28.48624849272789,24.55903992685826,37.23749530759529,-24.990026073980864
-5.754174488035715,-644.46754266,4.792396500393969,-2.2658365389285717,6.25e-09,1.8841,227,112,2718.9197400132266,7846.93472,mp-1232279,Tm2MgS4,https://materialsproject.org/materials/mp-1232279,13.261054610155014,8.416652976465759,-24.77798018739377,-77.60769783449591
-3.80878547125,-60.94056754,4.634009177106665,-0.6772227399479172,0.0,0.5693000000000001,31,16,379.1549943623577,1058.0948,mp-554105,CdAg2GeS4,https://materialsproject.org/materials/mp-554105,0.3929156941957429,9.669554326116293,-16.586276414476806,-70.58173231909323
-3.784042521666666,-90.81702052,4.449151813193574,-0.22273879133333327,2.5e-08,0.2452000000000005,62,24,825.7547724670886,2212.4793544,mp-29373,KAlSb4,https://materialsproject.org/materials/mp-29373,11.627731785561911,3.9331618584621286,-12.376646127726953,-8.127020377868265
-6.2896279625,-176.10958295,4.781930728134476,-1.1071594786309529,3.0,0.014299999999999981,1,28,648.1325688919367,1866.4572,mp-1239243,HfCrAgS4,https://materialsproject.org/materials/mp-1239243,-7.003895403903022,-1.75193237512492,-33.766947440627014,-47.50351123688419
-3.62081664125,-28.96653313,2.4516717588749484,-1.0270210165474998,0.0,2.0816,71,8,141.2322433480987,208.5197,mp-29025,Li5Br2N,https://materialsproject.org/materials/mp-29025,-7.817571621002745,-16.326929571985534,-27.9032671697937,-64.87687279815066
-3.7994386094999997,-75.98877219,2.2838789663075287,0.0974856734999996,0.00014205,0.0,2,20,386.41278914156203,531.466,mp-1073256,Mg2Si3,https://materialsproject.org/materials/mp-1073256,35.28402059018571,20.43571676584564,54.60222770899225,-1.096669102534101
-6.33183515875,-303.92808762,3.801533326162304,-3.1566345409125005,4.9999996,2.4958,14,48,674.5812084823888,1544.343664,mp-766474,Sr2FeCO3F5,https://materialsproject.org/materials/mp-766474,-14.90201200362988,-25.3274919617543,-16.379755492007938,-16.914909976514167
-2.2967938729166666,-55.12305295,4.7787210041676165,-0.5534283875833333,0.0,0.3003,14,24,1033.6776196074456,2974.730996,mp-29519,KAuI4,https://materialsproject.org/materials/mp-29519,-5.267704848646561,4.487735570974492,-36.821240339118994,-32.19676840744502
-6.031903659285715,-84.44665123,5.577382637534381,-2.450352696607144,5e-07,2.1666,122,14,293.7603754859718,986.676,mp-35787,Ca(DyS2)2,https://materialsproject.org/materials/mp-35787,18.938082861606567,-3.81889011483929,8.427071913157292,-9.065978840515731
-6.843524953125,-218.9927985,6.896088485389807,-2.2894694456640625,0.000380925,1.2224000000000004,62,32,644.0532238931797,2674.70256,mp-1195954,Ho2HfS5,https://materialsproject.org/materials/mp-1195954,13.954095370811036,-5.892611196713232,-0.3450931888327005,-12.59865987199938
-4.727464164642857,-397.10698983,5.1913272744245855,-0.43497084797619,0.0,1.8469,201,84,3274.8110318603,10238.01032,mp-569225,Mo6PbI14,https://materialsproject.org/materials/mp-569225,13.676900735123654,0.8364447344018486,0.30917817373249673,-17.89295422557731
-5.4014113183333325,-32.40846791,4.821370717053854,-0.16588160999999954,4.3512192,0.0,129,6,182.4730745385424,529.8100900000001,mp-20639,BaMnGe,https://materialsproject.org/materials/mp-20639,9.723934272281436,-33.028433553447115,5.267922174642911,-31.29248683747921
-6.978023778214286,-195.38466579,4.308287797523716,-1.8289849748214295,12.01570975,0.0,62,28,703.7825545660262,1825.9720000000002,mp-1232035,Eu2MgS4,https://materialsproject.org/materials/mp-1232035,12.469552088051715,4.939596427473205,-11.530099788848084,-7.82738436754438
-4.996087439999998,-69.94522416,4.374400581814246,-0.8535024861309525,3.99999995,0.0,227,14,311.1931893330598,819.7841999999998,mp-1103898,Cr(InS2)2,https://materialsproject.org/materials/mp-1103898,2.846498424752645,26.17332130239717,-21.97275008097384,-78.75493459206116
-5.924245979285715,-82.93944371,3.6206328133028287,-1.9134623272023819,0.99998765,0.0,74,14,321.769061352734,701.5840000000002,mp-1247097,SmMgTiS4,https://materialsproject.org/materials/mp-1247097,12.302121234913125,7.975577511561874,-23.76543895254075,-79.16470761635637
-2.427293488333333,-29.12752186,5.874189965971043,-0.3500310528993058,1.5e-07,1.2212000000000005,36,12,397.00148794167256,1404.4006800000002,mp-556866,Ag2HgSI2,https://materialsproject.org/materials/mp-556866,9.93235722268291,-21.7824156465785,-22.785585345656106,-33.01209511782374
-6.6193466420253175,-522.92838472,2.6909491732945017,-3.1122142146562033,0.0,5.0276000000000005,148,79,955.2000292278937,1547.9279119999999,mp-703370,Ca13Si10H12(O17F5)2,https://materialsproject.org/materials/mp-703370,-20.774806528672933,24.53155454911803,-13.311756033996362,16.478984036899007
-4.072501100714286,-57.01501541,5.953762784956443,-0.2765427208630951,0.00245865,0.0,227,14,337.14647381263273,1208.8183900000001,mp-1104359,In2CoSe4,https://materialsproject.org/materials/mp-1104359,21.968018995863208,5.5267094282740565,-21.634142896577288,-73.58032706418187
-4.3688034675,-209.70256644,5.575840798340046,-0.33516031249999995,0.0,0.4868999999999999,14,48,1739.7105372413982,5841.6868,mp-505088,NbTe4I,https://materialsproject.org/materials/mp-505088,14.904647324040122,0.6830033300378804,0.11718729743274425,-16.852476906408125
-5.706915082857143,-159.79362232,5.668879409748381,-2.190038986607143,4.575e-06,2.303,122,28,565.2521785800644,1929.7025600000002,mp-1232248,Ho2MgS4,https://materialsproject.org/materials/mp-1232248,19.206510094240997,-3.424917748818636,7.453884539074258,-9.111821872559974
-6.7208096253125,-215.06590801,4.520181882287138,-2.645643784554061,0.0,5.562900000000001,14,32,378.10560101793294,1029.24776,mp-23831,NdHSO5,https://materialsproject.org/materials/mp-23831,-34.431750128366815,-25.76450230287539,-31.680968074995338,-37.11184097571217
-3.1322095843333333,-93.96628753,5.310664793497337,-0.31462050033333305,0.0,1.1926,2,30,1028.5579638500183,3289.49,mp-1193453,Te7IrBr7,https://materialsproject.org/materials/mp-1193453,17.96832497493819,1.7043621403186804,-1.112026146311408,-21.754240772506193
-4.690884880357143,-131.34477665,4.678561093346106,-0.7561826111033335,0.0,1.709,62,28,444.64214691574495,1252.7772,mp-557303,Ag2NClO3,https://materialsproject.org/materials/mp-557303,-19.561883707258016,-24.781455077348124,-16.309671253807714,-8.091781575582377
-6.384273662999999,-127.68547326,5.9775758684847995,-2.4838009149374995,0.0,1.0132,11,20,466.75085123044744,1680.2005600000002,mp-1105931,Pr(TmS2)3,https://materialsproject.org/materials/mp-1105931,8.674938681966394,-3.0408219129717953,-5.15613906645528,-14.282298806568539
-2.83331354125,-453.33016660000004,4.274243899509088,-0.7551613385833335,0.006799884375,2.3003,4,160,5834.917768247586,15019.136,mp-685174,In2Br3,https://materialsproject.org/materials/mp-685174,-5.352588730842594,-6.787195896577453,-22.03241372878488,-31.55923360940436
-7.690706138125,-246.10259642,3.9767616196635527,-3.349580285859373,0.0,4.6271,148,32,404.402040377134,968.487024,mp-17562,Sr3Sc(BO3)3,https://materialsproject.org/materials/mp-17562,-18.204975460762782,-32.16243140770124,-1.530878727510122,-15.52217544412627
-4.76450283375,-38.11602267,3.5950982294483813,-1.40586125875,0.01292385,0.06279999999999998,193,8,305.71189584756246,661.872,mp-23247,ZrBr3,https://materialsproject.org/materials/mp-23247,-3.3422080688322877,5.880691990140438,13.299029266516845,-8.39805255612405
-6.081686349375,-97.30698159,4.298637547027213,-1.7078079764062508,0.0,1.7908,19,16,334.65730789900175,866.3273999999999,mp-12843,YCuS2,https://materialsproject.org/materials/mp-12843,16.552164818582465,-12.818412402385748,-10.442855635805149,-16.752550154397813
-8.391748820625,-268.53596226,9.202078062388654,-3.262422566621563,8.690000000000001e-05,2.1033,115,32,486.03470497925326,2693.4201415999996,mp-677238,Th10N9F13,https://materialsproject.org/materials/mp-677238,-23.95171200514818,-60.373480060891154,-16.35884023033933,-66.05202931758949
-6.081707643125,-97.30732229,4.296364992971658,-1.7078292701562503,0.0,1.6014999999999997,62,16,334.8343242427088,866.3273999999999,mp-10533,YCuS2,https://materialsproject.org/materials/mp-10533,16.552124337246926,-12.81840948732485,-10.442596968764823,-16.754768118401607
-6.37383617625,-50.99068941,7.275763431149827,0.025882941249999902,9.138094800000001,0.0,164,8,160.15312882170213,701.7217,mp-1226332,Cr3NiSb4,https://materialsproject.org/materials/mp-1226332,25.90749767426596,22.363383525711452,58.01086711948986,-23.67808593510776
-4.3934481851851865,-237.246202,6.463464468858881,-0.3203310137037042,0.0,0.0,223,54,1332.347551143749,5186.015414,mp-21839,Ba4Ge20Au3,https://materialsproject.org/materials/mp-21839,18.69522378751869,23.628344251556516,16.275831460437146,-46.43728878527528
-4.24722466125,-33.97779729,3.732483247368236,-1.0061856757812504,1.5e-07,1.0716,15,8,171.5766059220839,385.662,mp-1079885,LiSbS2,https://materialsproject.org/materials/mp-1079885,12.348432341255016,7.3482004894792246,-27.720293259247104,-78.4218382247626
-6.337292501,-63.37292501,6.198990188770257,-2.448293851437501,0.0,2.5673,167,10,239.01138695724282,892.258,mp-2826,Lu2S3,https://materialsproject.org/materials/mp-2826,10.736607159858536,11.552622350420913,-8.407738872856095,-7.551032971955213
-6.609676296428572,-92.53546815,5.445111650919461,-2.028439004464286,5.00000045,1.0720999999999998,227,14,325.1674643064655,1066.26409,mp-14305,Lu2MnS4,https://materialsproject.org/materials/mp-14305,2.4514306730799507,25.047565943091485,-23.137889571772128,-78.57932737667964
-7.411147918043477,-340.91280423,5.088028152313222,-2.697982696086956,0.0011847000000000001,3.4403,15,46,695.5174976430162,2131.1228,mp-622521,BaNd2(MoO4)4,https://materialsproject.org/materials/mp-622521,-52.355179308732936,-52.40358781938597,-25.004504165464834,-59.42757928604362