energy_per_atom,energy,density,formation_energy_per_atom,total_magnetization,band_gap,sgr,num_sites,cell_volume,weight,mp_id,formula,URL,tsne_cry_0,tsne_cry_1,tsne_xrd_0,tsne_xrd_1
-6.4361908825,-180.21334471,2.9268007397223443,-2.3611847326785718,5.3e-06,1.2889,62,28,586.0787295903319,1032.9992960000002,mp-17597,Ca(ScS2)2,https://materialsproject.org/materials/mp-17597,21.024194682590615,24.45821151286705,21.651862377377267,-47.44764947845069
-4.5717064336206885,-265.15897315,2.514804093158611,-0.4880474195751723,0.0,1.7128,58,58,911.6405767936303,1380.6344800000004,mp-570137,SnH16C4(Br3N)2,https://materialsproject.org/materials/mp-570137,-3.8542702410660152,4.025080001840827,-35.0714211403833,-30.950479174000737
-6.246209332307693,-162.40144264,2.979643535127302,-2.280011280087913,0.0,3.4805,11,26,435.78778327521394,781.9703240000001,mp-754251,K3SnPCO7,https://materialsproject.org/materials/mp-754251,0.3598464807184608,-3.95393328985416,-18.72646929305198,-33.30000851247837
-4.873975499661016,-575.12910896,6.798487819516191,-2.3609440756250004,0.94105095,0.0,1,118,2921.298495229509,11960.22,mp-685187,Yb29S30,https://materialsproject.org/materials/mp-685187,25.507219429601502,10.965637355340924,29.881024598222357,-39.817004888351406
-3.060213348,-15.30106674,4.167900982792916,-0.304777301,1e-07,0.0,164,5,105.12569422574929,263.86220000000003,mp-1017630,Mg2ZnAs2,https://materialsproject.org/materials/mp-1017630,17.959139770075534,3.6862647462257048,13.722790697641136,5.0798693430397535
-2.822651166111111,-50.80772099,3.822119841197989,-1.5175424531800763,0.0043192,3.0377,140,18,791.2705768737222,1821.2947114,mp-1188465,Cs3CdBr5,https://materialsproject.org/materials/mp-1188465,-7.839419150368196,-8.185817981968569,-28.565002380513892,-34.41643058156557
-3.056969068,-15.28484534,5.0007920211419865,-0.6816211250000002,0.0,1.1348999999999998,8,5,171.5846480654408,516.7353,mp-998153,TlGeBr3,https://materialsproject.org/materials/mp-998153,0.2789816975996869,13.4013672172632,-27.968569538627936,-69.46863547455686
-6.162589011124999,-493.00712089,3.595241528262964,-3.7091228665771436,1.000000425,0.4245,14,80,1111.7769273675638,2407.1138848,mp-1199626,Sr3Al2P(O2F5)2,https://materialsproject.org/materials/mp-1199626,-14.941653590496704,-25.603189047587595,-15.214766319260864,-16.412339616252233
-8.2434397346875,-263.79007151,5.8166693618556335,-3.73249170140625,0.0,4.7791,14,32,452.8462006278321,1586.266,mp-560132,Nd2SiO5,https://materialsproject.org/materials/mp-560132,-11.90970808941248,-58.308608947513456,-18.217248324072376,-33.266784379928914
-6.0138145707142865,-84.19340399,4.30247673261433,-1.595272275892857,2.9955784,0.0,74,14,317.2544051019172,822.01,mp-1246620,DyMgMoS4,https://materialsproject.org/materials/mp-1246620,1.7879632709518831,25.287944291306246,-23.058383839536997,-79.47057512281586
-3.34975137,-23.44825959,4.996766405681644,-0.4520220399895238,0.0,0.6111999999999997,1,7,236.4260195511864,711.435,mp-1224202,In2CuTe3Cl,https://materialsproject.org/materials/mp-1224202,20.84860427778617,13.75365553657459,-11.956376576305205,-13.35162855745162
-5.326213645,-63.91456374,9.924329145069473,-0.2766612616666665,0.0,0.0,62,12,299.44730159571066,1789.668,mp-569322,Te2Ir,https://materialsproject.org/materials/mp-569322,29.035860752527924,25.95149100682468,37.65834504131296,-25.97268031955118
-7.410939957499999,-88.93127949,5.885699911095943,-3.0049646391666665,1.0,0.0,14,12,198.89204904185357,704.9631999999998,mp-755820,NdO2,https://materialsproject.org/materials/mp-755820,-10.015841029718812,-60.616841163185356,-33.11292049142461,-47.520659591989926
-5.447990994285715,-76.27187392,5.491390019399452,-2.058167417321429,0.0,1.1768,227,14,349.88856726443885,1157.07884,mp-4324,Tm2CdS4,https://materialsproject.org/materials/mp-4324,10.59783958988884,12.315930935048026,-20.996971129705557,-75.14014542292011
-5.638019461428571,-39.46613623,7.216538892744747,-0.3672721571428568,1.17e-05,0.0,6,7,174.821905724137,759.7587599999998,mp-1220695,Nb2CuTe4,https://materialsproject.org/materials/mp-1220695,21.09999635979304,2.679985936979393,16.2870005951025,-10.943892727879398
-2.83360658,-544.05246336,4.365773407675701,-0.7367403180555557,0.015566475,2.0373,92,192,6897.599712636393,18134.688,mp-680178,In5Br7,https://materialsproject.org/materials/mp-680178,-5.2953822885164765,-6.759477675261579,-20.937252192843523,-31.04566318759896
-8.30907513640625,-1063.56161746,4.934517423811316,-3.6482571718229164,4.3325e-05,4.4115,61,128,1732.897115975501,5149.53928,mp-773117,La3Si2BO10,https://materialsproject.org/materials/mp-773117,-19.992590268765877,-35.631856270331305,-17.156732448331464,-32.27508504234732
-3.23964012625,-51.83424202,4.940030231301603,-0.520322871961207,2.45e-06,0.5919000000000003,140,16,623.6365617051539,1855.2912,mp-28520,Rb2SnTe5,https://materialsproject.org/materials/mp-28520,13.222927546134233,1.542914946689676,-14.861206273254876,-8.716399038613195
-3.932891339,-78.65782678,4.6348099472836415,-0.3287082288229165,9.120000000000001e-05,1.0488,9,20,570.8269478697108,1593.2624,mp-1224898,GaAg(GeSe3)2,https://materialsproject.org/materials/mp-1224898,-6.206518527210673,-1.1803497766674242,-35.172215669074696,-45.82272798593196
-3.44131307125,-55.06100914,4.625852909546711,-0.4450486242134377,2e-07,1.0314,14,16,438.74516414148536,1222.236,mp-1213116,CuTeSeCl,https://materialsproject.org/materials/mp-1213116,-6.4293648645676305,-1.4481144844488223,-35.48565594566124,-45.96075351206705
-3.655824742,-36.55824742,2.7715001627705163,-1.7120618719,0.0,3.2221,225,10,384.4582405672719,641.674812,mp-1111163,K3ScBr6,https://materialsproject.org/materials/mp-1111163,2.203659999976714,7.360779896680134,-34.62402944676693,-69.96968469259467
-6.429192892432432,-237.88013702,5.8004565359620575,-2.491068210118244,0.00012919999999999997,0.0,12,37,882.677117968139,3083.29412,mp-1202975,Pr4(HoS2)11,https://materialsproject.org/materials/mp-1202975,8.736020547436723,-2.993691388264344,-5.271406146248849,-14.50646141689306
-3.680714,-51.529996000000004,4.899353137242915,-0.3940536360267857,1.5e-06,1.9109000000000005,161,14,367.101873694636,1083.1192,mp-1104271,Ag3SbS3,https://materialsproject.org/materials/mp-1104271,-6.854904738008263,-10.921929322343738,-14.474259147227118,-68.14811878033264
-5.78531013392857,-323.97736749999996,5.0551246800406435,-2.2543189219642867,0.00011420000000000001,1.4040000000000001,29,56,1236.2007812992613,3763.3256,mp-1232102,Tb2MgS4,https://materialsproject.org/materials/mp-1232102,12.321113751746378,5.39123502767618,-6.471435386210271,-17.110167287463426
-7.1782123833333324,-301.4849201,3.0970817173569887,-2.751044917878254,0.0,4.9578,1,42,437.84339174471717,816.62444,mp-1201098,Sr2B5H3O11,https://materialsproject.org/materials/mp-1201098,-18.730611917128932,-29.14095252293296,-33.510741859140005,-34.84904151126705
-4.6451724875,-37.1613799,6.966082949453537,-0.8058154750000002,2.5e-07,0.0,63,8,232.3044047206336,974.534,mp-9768,BaSb2Pd,https://materialsproject.org/materials/mp-9768,43.552329145516794,2.2700315481218785,26.08278213133981,-31.064029686021424
-2.373029686666667,-14.23817812,1.659547557151761,0.660484086666667,0.0098194,0.0,136,6,156.62967562001444,156.5361544,mp-1039192,MgAl2,https://materialsproject.org/materials/mp-1039192,22.31720784392565,8.682517474568165,26.294139733680005,-38.44772302525932
-7.102094517894736,-269.87959168,5.590776127777264,-3.9563031360109218,0.0,2.6053000000000006,6,38,661.5179087267518,2227.2276912,mp-1223425,La6S3(OF4)2,https://materialsproject.org/materials/mp-1223425,-12.305300686204276,-32.19824591354689,-25.327787144382878,-43.146087696369065
-3.7093182625,-29.6745461,4.166014171393863,0.01187450866379347,3.5600000000000005e-05,0.0,194,8,241.85577169611742,606.7756,mp-862769,RbGe3,https://materialsproject.org/materials/mp-862769,20.25347579641074,10.80298672856527,28.18714751292446,-43.15291073659439
-7.2726726256818175,-319.99759553,2.8134559724945105,-3.2354831143668843,0.0,5.5021,14,44,599.8911682495608,1016.397296,mp-17922,Ca2P2O7,https://materialsproject.org/materials/mp-17922,-52.877806918698276,18.733684627844006,-32.7608902442472,-27.755099335401926
-2.9487514244999997,-58.97502849,3.477532741425739,-1.8101874735249652,1.895e-05,3.554,62,20,581.1002016752689,1216.9512,mp-23390,RbCdCl3,https://materialsproject.org/materials/mp-23390,-3.0951606917456123,-2.397437821255005,-17.224546108260796,-7.98344164956084
-4.4088566848484865,-290.9845412,2.538231431221249,-1.4790465017418186,1e-07,3.742,2,66,875.7036688052698,1338.56448,mp-759862,SrCd2H16(Cl3O4)2,https://materialsproject.org/materials/mp-759862,-26.411496923371725,-2.7452465032662547,-34.10140279256731,-33.54742143003238
-5.709243685400001,-570.92436854,4.955755010109577,-2.633739259775001,7.158000000000002e-06,1.7049,1,100,2568.7758226876763,7666.3200000000015,mp-1244871,BaO,https://materialsproject.org/materials/mp-1244871,-3.746489240993129,-24.785453713509003,-21.656948457829266,-32.22154424076393
-3.7858717025,-242.29578896,3.8017413734691035,-0.544561179171875,0.0,1.2044,61,64,1787.8879581267195,4093.30190848,mp-27374,NaAsSe2,https://materialsproject.org/materials/mp-27374,-4.9726506037517515,-1.6131017595931458,-31.457712027765393,-38.024244077638066
-4.804320631875,-76.86913011,7.132665542376898,-1.207887086588542,0.0,1.2728000000000002,19,16,401.0982505553894,1722.8740799999996,mp-12955,HoAgSe2,https://materialsproject.org/materials/mp-12955,27.573567823459026,-0.049633928976201884,13.566958094709609,5.35113883126912
-6.479975534499999,-129.59951069,6.003996025424618,-2.4644386089375003,0.98277045,0.0,11,20,464.25905041312853,1678.6172600000002,mp-1188911,Ce(TmS2)3,https://materialsproject.org/materials/mp-1188911,8.743021610825501,-3.0489484970029137,-5.241264155652236,-14.38282894492936
-5.920309100625,-284.17483683,4.066103310198612,-2.0299477564739585,0.0,3.4507,14,48,761.1024119295238,1863.6846,mp-14316,KPr(SeO4)2,https://materialsproject.org/materials/mp-14316,-29.81730478082653,-52.771059803378925,-27.658084694991075,-52.09536135937218
-7.7478992775,-123.96638844,3.1004885819984978,-1.0442814483775005,0.0,3.6025000000000005,62,16,273.4511102621653,510.5764,mp-9167,SrCN2,https://materialsproject.org/materials/mp-9167,-24.270853097030354,-20.089156577007685,-30.1341587645838,-34.64329626484784
-4.8166574476923065,-187.84964046,5.050979401224665,-3.3450765960497435,0.0,4.4184,12,39,583.7992132230485,1775.7834832,mp-31026,Ba6Zn7F26,https://materialsproject.org/materials/mp-31026,-13.894366646042288,-20.72439969504181,-13.67675413780627,-19.35654205429054
-5.847372038035713,-327.45283413,3.713005526059269,-4.056671008171429,6.575e-06,7.0874,79,56,749.8793686203978,1676.7484367999998,mp-540653,SrAlF5,https://materialsproject.org/materials/mp-540653,-14.897267757567331,-25.753275112926715,-15.343289413529494,-16.88238016421959
-6.845343657857143,-95.83481121,3.521082739925833,-1.3248355416071431,9.0000011,0.0,141,14,308.46529275184065,654.08388,mvc-16729,Y(MnS2)2,https://materialsproject.org/materials/mvc-16729,3.670941026368833,28.111415313134533,-19.22052698294809,-77.10178354253564
-4.756314400714286,-66.58840161,5.265088093337838,-3.322372812994064,0.0,4.8033,160,14,223.72371898724805,709.3630807,mp-1225924,CsBa2Zn2F9,https://materialsproject.org/materials/mp-1225924,-10.886392085923118,-81.88677083783345,15.97875173635754,-72.45438045578403
-6.386298597750001,-255.45194391,6.320041437003055,-2.456661600187501,0.0,1.8722000000000003,122,40,870.2968878256684,3312.3656,mp-673644,Tb2S3,https://materialsproject.org/materials/mp-673644,16.07070253822278,-4.327471248302887,9.303140181276165,-9.554608554126613
-6.9684157450000015,-97.55782043,7.237249324757933,-0.4794905186830362,0.0,0.18880000000000047,176,14,334.5666920498212,1458.1666,mp-3411,Tl(MoSe)3,https://materialsproject.org/materials/mp-3411,30.630766337364317,31.657158357689944,24.539029677588054,-46.08210286085443
-5.206754688529411,-177.02965941,2.2889939478020724,-0.5264280312041177,0.0,2.3326,15,34,474.09311480336646,653.52048,mp-698349,CdH6C4(S2O)2,https://materialsproject.org/materials/mp-698349,-3.144561046303336,7.5246352012633535,-12.32196198470242,-7.016924036188883
-3.15950501,-25.27604008,5.05495594510467,-0.5657324794583336,0.0,0.6366999999999998,140,8,258.20392937143174,786.01553856,mp-22483,NaInTe2,https://materialsproject.org/materials/mp-22483,11.586103982342394,3.797671663197193,-14.839011164531202,-8.206886584644247
-2.8324639340625004,-271.91653767,4.3990382013915585,-0.7355976721180557,0.0061501625,2.0735,9,96,3422.720606596878,9067.344,mp-652621,In5Br7,https://materialsproject.org/materials/mp-652621,-5.300721972629637,-6.76165322843073,-20.942902745799056,-31.07105243512949
-3.7358309221,-373.58309221,5.159991548203837,0.10342427540000017,0.0,0.0,1,100,2327.406963571404,7232.23,mp-1244999,GaAs,https://materialsproject.org/materials/mp-1244999,33.500703035217335,20.88744444103941,54.488595404141606,-2.0708841587207227
-3.4183784471428567,-47.85729826,5.582280222511556,-0.4998208384449409,0.0080086,0.2070000000000003,166,14,389.2570978898323,1308.5764,mp-1223994,In2AgSe3Br,https://materialsproject.org/materials/mp-1223994,23.203207162132784,3.4419390083620187,8.306085134523777,2.2204164092356167
-5.92375977357143,-82.93263683,3.733927747476047,-1.6644651919642866,2.99999855,0.746,74,14,315.6784932799638,709.8422,mp-1246723,SmMgCrS4,https://materialsproject.org/materials/mp-1246723,12.20711877318805,8.069762918197199,-23.41524997147644,-79.54927488238744
-4.028229422857144,-28.19760596,4.101047224768702,-0.7815107327678571,0.0,0.8770000000000002,6,7,176.22002509635894,435.2120772,mp-1228454,Al2ZnSe4,https://materialsproject.org/materials/mp-1228454,9.32773214227558,16.931672190192753,-14.727940177357507,-70.97788377556137
-3.2297339588888887,-116.27042252,3.646725626479628,-1.13833997525,0.0,1.7876,62,36,990.2777438329193,2174.7584,mp-18101,K2Cd3S4,https://materialsproject.org/materials/mp-18101,-16.287982491719934,3.664462909997212,-0.2671591336190445,-21.751647134873753
-8.695413160555555,-156.51743689,4.903413987447482,-1.5464760306411118,0.0,3.2757999999999994,15,18,253.214067870524,747.71708,mp-560490,La2C2N4O,https://materialsproject.org/materials/mp-560490,-16.463602085391873,-27.062693737619934,-18.13444272955154,-16.383066430150755
-5.769212988571428,-323.07592736,5.274893402322177,-2.2523368923214284,0.0,1.4460999999999995,29,56,1214.9426318481758,3859.4051200000004,mp-1232252,Ho2MgS4,https://materialsproject.org/materials/mp-1232252,12.254437154055195,5.48670652251292,-6.476880717059367,-17.143668069557034
-7.097212105333332,-106.45818158,4.312671749343469,-2.607722892364667,0.0,3.7152,8,15,222.091644290524,576.805686,mp-1218488,Sr3LaC2N4F5,https://materialsproject.org/materials/mp-1218488,-12.982824804333145,-34.03031584563634,-21.06230722898816,-52.522578517670496
-4.7140158420625005,-754.24253473,2.262323560533395,-0.4767687185588322,0.001634425,2.7864,148,160,2150.6611427437483,2930.06744,mp-600242,InH24C6(Br2N)3,https://materialsproject.org/materials/mp-600242,-29.693771683928176,-6.222252078975513,-74.22297156232716,-10.67168504073292
-6.828072073076924,-88.76493695,5.004713297367659,-2.6101866707692314,2.0,0.0,166,13,213.66551991874863,643.9684,mp-18913,Ba3Cr2O8,https://materialsproject.org/materials/mp-18913,-10.043914091422726,-31.517807912741265,16.61479024013046,-72.39566175181156
-7.709225553225807,-238.98599215,6.047476839004107,-3.2850707200000007,7.0000004,0.0,2,31,513.4640183754868,1869.97215,mp-1209915,Pr11O20,https://materialsproject.org/materials/mp-1209915,-23.890175855859376,-66.89041450712628,-16.062509458483586,-66.92133219780663
-3.763741238,-37.63741238,5.7422069205567965,-0.019155462000000508,4.235e-05,0.4691999999999998,12,10,308.06093901776853,1065.2864,mp-484,Te3As2,https://materialsproject.org/materials/mp-484,10.707013109369603,8.62723442516145,-1.9106214135641764,-14.956726699987168
-6.076374115833333,-145.83297878,3.2942913379637946,-2.0867434334482757,0.0,3.2556,62,24,465.64473992190017,923.778,mp-555692,Rb2CO3,https://materialsproject.org/materials/mp-555692,-30.73804325043152,-18.191409894514717,-8.464183974211991,-23.536064129849343
-4.0738759020238104,-342.20557577,4.29238390128392,-0.2858109729945242,0.00028615,0.04059999999999997,60,84,2092.127033474311,5408.0104,mp-1197642,Ag6Sn3(S5N)2,https://materialsproject.org/materials/mp-1197642,-4.566328589449333,-1.8754966034735656,-32.93350266052108,-40.678948398596674
-5.166237905,-41.32990324,4.845320319443318,-1.7964188777975003,3.94854095,0.0,129,8,162.70836160917142,474.7700064,mp-20807,SrFeAsF,https://materialsproject.org/materials/mp-20807,18.883430223247842,-37.78780801627791,20.30866209715633,-41.273637732447746
-2.6995195385714292,-37.79327354,4.122861481266367,-0.9972980609889796,0.0,1.828,164,14,382.2757463131154,949.131524,mp-29415,Cd3PCl3,https://materialsproject.org/materials/mp-29415,-1.1315950533502406,-1.7942104325317287,-18.918373773271508,-15.562798806407464
-7.223920015,-144.4784003,3.1710549256027414,-2.737381009341167,1.0,0.9371,5,20,213.286957800182,407.30428000000006,mp-699248,Sr2B5H2O11,https://materialsproject.org/materials/mp-699248,-18.702849356747507,-29.14114252005066,-34.77585856506534,-35.56115163641623
-5.337216606666666,-128.09319856,9.838999604511603,-0.2876642233333329,5e-07,0.0,62,24,604.0885663367677,3579.336,mp-569388,Te2Ir,https://materialsproject.org/materials/mp-569388,29.017121491331388,25.933334347450447,37.69683530136224,-25.632450296605377
-3.79166412,-60.66662592,4.675096557245622,-0.41772204390625056,0.0,0.3498999999999999,31,16,374.2164638193547,1053.5724,mp-9538,Ag3AsS4,https://materialsproject.org/materials/mp-9538,0.4580905000920695,9.646466700060284,-16.46971011764542,-70.54738675139052
-5.298236391428572,-74.17530948,4.8659904128215095,-3.2193554818610584,8.0,0.029399999999999867,160,14,219.3572396940054,642.7974287999999,mp-1219607,RbBa2Fe2F9,https://materialsproject.org/materials/mp-1219607,-10.809550501786154,-81.90908829281426,15.993322405454359,-72.42181430769594
-6.304791475,-126.0958295,7.216546831940766,-2.4157928254374994,0.0,0.7219999999999995,62,20,410.62000351596436,1784.516,mp-1188532,Lu2S3,https://materialsproject.org/materials/mp-1188532,14.252898855598028,-4.476006816779126,-0.5833748281763298,-13.583103443494279
-7.155634939166667,-343.47047708,4.609251872088964,-2.5932802134583333,0.0,3.4245000000000005,15,48,701.9878971213757,1948.5474,mp-581225,KLiNd2(MoO4)4,https://materialsproject.org/materials/mp-581225,-51.924486419491615,-52.48904005422028,-24.843659454983506,-59.54771797411254
-6.5104987508333325,-156.25197002,6.09761888413818,-2.4334162757900004,0.0,2.0003,129,24,351.2988651235825,1289.99472,mp-1190994,NdHO,https://materialsproject.org/materials/mp-1190994,-23.63429744350419,-67.05247144097325,-9.383890289571113,-79.08593294345356
-3.240081930333333,-97.20245791,2.990234533700673,-1.5341092149422304,0.00013833333333333333,0.6094999999999999,194,30,1025.7521318057345,1847.1348,mp-772199,Rb3ClO,https://materialsproject.org/materials/mp-772199,-0.6284736546650269,12.677481485810228,-26.54943633759785,-68.8519302458525
-3.776099987708333,-181.25279941,4.970491979034729,-0.4208179203520117,7.5e-08,1.4405,62,48,1759.5827418995525,5266.95952,mp-570566,Rb5Ta(TlAs2)2,https://materialsproject.org/materials/mp-570566,-0.6423793881122559,0.039817068932506666,-18.512161749585378,-47.3860724987451
-3.9061655616666666,-23.43699337,2.350273701627947,-0.3991009077380952,9.000000000000001e-07,0.0,155,6,117.16832254935308,165.836286,mp-978292,MgP,https://materialsproject.org/materials/mp-978292,31.361446407636546,24.963571971402807,62.82271251284536,-11.1805184269979
-5.5093483515,-110.18696703,3.277085505555529,-2.186076938448,0.0,3.9595,62,20,246.53508053482147,486.53872,mp-27425,Sr(HO)2,https://materialsproject.org/materials/mp-27425,-15.92822497937813,-27.19336827312691,-9.796075319005917,-15.373070369656201