energy_per_atom,energy,density,formation_energy_per_atom,total_magnetization,band_gap,sgr,num_sites,cell_volume,weight,mp_id,formula,URL,tsne_cry_0,tsne_cry_1,tsne_xrd_0,tsne_xrd_1
-5.691447696875,-91.06316315,4.02484228055862,-1.86009941131,4.7309789,0.0,8,16,138.41996920215374,335.504635,mp-1174236,Li5Mn(CoO4)2,https://materialsproject.org/materials/mp-1174236,5.582729146491838,85.84486600873734,-5.100762666940666,94.57128642817206
-4.4917749925,-17.96709997,7.692085348822019,-0.34823688999999897,1.2e-06,0.0,225,4,67.56904667945551,312.99888860000004,mp-971985,TbAlCu2,https://materialsproject.org/materials/mp-971985,93.06812124808451,9.220823946728345,58.168680786519936,67.97992326056803
-6.443116983333333,-38.6587019,9.68253044150118,-0.4071379722222209,1e-07,0.0,191,6,63.705089023933446,371.461585,mp-10058,YbCo3B2,https://materialsproject.org/materials/mp-10058,55.1559787348067,26.295742926727048,68.20326274136924,19.053577551879172
-5.61047773,-16.83143319,9.7165206948487,-0.6359126983333331,2e-05,0.0,139,3,64.95835787182338,380.099,mp-1062078,ErPd2,https://materialsproject.org/materials/mp-1062078,24.710587314858998,7.1358406215922106,57.61194040694596,32.740397706809304
-4.62167904,-13.86503712,4.316975745025139,0.0315666625400001,7e-07,0.0,123,3,32.50078197583918,84.49369999999998,mp-1147646,LiCuN,https://materialsproject.org/materials/mp-1147646,35.13060050615891,41.75164196053425,-3.493286837348694,56.972496672345116
-6.50707933625,-52.05663469,4.9640652925704165,-2.432022878125,8.599999999999999e-06,1.8161999999999996,194,8,81.97304293240127,245.05267719999998,mp-3098,AlCuO2,https://materialsproject.org/materials/mp-3098,24.602316061792607,50.33998426413006,10.251098227164725,44.177377998122466
-6.678819372,-66.78819372,5.047675210302084,-2.34615075325,0.0,2.3464,148,10,88.10695812990706,267.8258672,mp-1178576,AlCoO3,https://materialsproject.org/materials/mp-1178576,7.168197328766537,61.43182094406849,7.0960198817676305,50.0863081970284
-5.485712582916666,-131.65710199,4.326868472494383,-1.6699358190383335,6.000000099999999,0.0,15,24,221.9320092884788,578.2884899999998,mp-867526,Li3Mn(NiO3)2,https://materialsproject.org/materials/mp-867526,10.188729959413196,73.71835790547549,13.762840536274528,72.75238571441794
-9.625205951666667,-115.50247142,6.143960410533363,-0.3114116912500009,9.65e-06,0.0,18,12,124.26912087805063,459.7932,mp-1216390,VCrC,https://materialsproject.org/materials/mp-1216390,31.286304956760567,57.876536182956954,83.54296112810306,18.832285126918574
-7.10071282,-35.5035641,17.978010624408462,-0.2326218659999995,4.26e-05,0.0,166,5,80.65703673596683,873.24238,mp-1220285,NbPt4,https://materialsproject.org/materials/mp-1220285,63.54964827166709,58.711866569471205,82.87267637061436,16.87610728550071
-9.307388565,-55.84433139,11.273643021077461,-0.3494253816666664,3.23255845,0.0,227,6,85.48349769924636,580.36,mp-333,HfFe2,https://materialsproject.org/materials/mp-333,71.29150058090833,49.74954146313296,71.98649383803176,22.86322258003857
-7.434471165,-29.73788466,8.747894501896884,-0.4677603000000001,1.1e-05,0.0,225,4,72.43704879623722,381.606,mp-976330,LiZr2Ir,https://materialsproject.org/materials/mp-976330,87.16206253196646,-0.8408614919560671,66.38654989071078,46.500029319385746
-5.5115086375,-154.32224185,4.270828285272423,-1.7311672118750003,8.9999951,0.7591000000000001,2,28,246.16265612156772,633.11877,mp-1174179,Li4Co3O7,https://materialsproject.org/materials/mp-1174179,10.197188229136088,85.75172463130706,9.295030767069946,95.50461176489522
-5.378490872,-53.78490872,2.8489137119370698,-3.2779704862806667,1.0,0.0,225,10,125.1870782528737,214.77795776,mp-1113901,Na2LiTiF6,https://materialsproject.org/materials/mp-1113901,-12.677606717550413,52.02710004490467,-2.3474692378064628,57.70180760003831
-5.219799241052631,-198.35237116,4.464113849746976,-1.4757894253947368,19.9966819,0.0,10,38,354.82880010624535,953.9048,mp-759370,Li8Fe3Ni7O20,https://materialsproject.org/materials/mp-759370,12.069338201361434,80.61387103928716,22.562568878907772,84.23043525413918
-5.8064333921875,-185.80586855,4.281215119349542,-1.87108442881,14.000000199999997,0.4655,1,32,280.42789842153513,723.001465,mp-1175746,Li9Mn2Co5O16,https://materialsproject.org/materials/mp-1175746,19.11984018050313,89.175192913336,10.689188115025397,91.2962118883222
-7.205740040178571,-403.52144225,3.515733736267935,-3.338770774464286,3e-07,5.5284,186,56,508.66320865271445,1076.9541456,mp-554364,MgBeAl4O8,https://materialsproject.org/materials/mp-554364,4.011888709751629,62.005814904971075,7.8825879216277075,51.68169215869963
-3.085985615,-12.34394246,3.7631622978166006,0.04329847624999994,6.6e-06,0.0,221,4,64.58023158396999,146.3536158,mp-983585,Al3Zn,https://materialsproject.org/materials/mp-983585,58.34603856003869,54.03100841097067,79.59140062034514,15.266984905370288
-9.462054327999999,-47.31027164,6.452268774908331,-0.4990431369519996,1.6349205,0.0,139,5,47.35419693992968,184.0017,mp-1014303,Cr3N2,https://materialsproject.org/materials/mp-1014303,30.49882494637121,57.848672234395764,84.8661500749096,18.80157616965945
-7.24431752,-28.97727008,12.748884556197636,-0.8721541050000008,1.15e-05,0.0,221,4,64.83181360036677,497.75,mp-1007656,HfPd3,https://materialsproject.org/materials/mp-1007656,61.97520549281342,55.319651293806686,81.22779602500708,16.394291252949213
-3.3735609975,-13.49424399,9.852201850484855,0.19250830250000028,3e-06,0.0,221,4,64.4344039584084,382.298,mp-976772,NiAg3,https://materialsproject.org/materials/mp-976772,60.863685027907714,54.034098725905196,81.21438579182369,17.12450355147944
-9.975382911666667,-119.70459494,14.535639361693304,-0.4868998816666673,0.00014115000000000002,0.0,51,12,195.43351011631057,1710.74028,mp-1095683,NbIr,https://materialsproject.org/materials/mp-1095683,63.07907045960013,55.775777977519255,80.60890754965952,15.515617436749055
-5.80493454125,-185.75790532,4.2423850854643606,-1.869585577872499,21.9999999,0.6160999999999999,3,32,282.9946208144097,723.001465,mp-1175684,Li9Mn2Co5O16,https://materialsproject.org/materials/mp-1175684,11.56629547647326,86.2505364665148,8.431828143565436,95.67177764241579
-3.3789622675,-13.51584907,9.831614051517,0.18710703250000016,2e-07,0.0,139,4,64.56933221620596,382.298,mp-976762,NiAg3,https://materialsproject.org/materials/mp-976762,60.89208294812236,54.003112062925645,81.19338122588412,17.418771269199624
-4.70361297,-42.33251673,8.461504495972811,0.16020032169333356,3.3e-06,0.0,123,9,118.97549723416994,606.255969,mp-1225700,Cu6AuN2,https://materialsproject.org/materials/mp-1225700,55.6049004575625,57.898593974884214,80.93130691605623,11.01803858022511
-7.271142272,-109.06713408,1.6218075195556405,-3.23605188525,0.0003481666666666667,4.8074,150,15,313.18885746426565,305.8838316,mp-985587,Al2O3,https://materialsproject.org/materials/mp-985587,8.700145284970938,65.22738866532418,13.94290513743006,93.34476847838205
-7.124520688333334,-341.97699304,4.076822959027422,-1.8020021285733336,11.000000025,0.8819,212,48,561.7736082984331,1379.2217400000004,mp-772951,Mn3CrO8,https://materialsproject.org/materials/mp-772951,6.474969259424179,70.83164738740575,16.009485471869702,83.97294566486913
-5.5221825478125,-176.70984153,4.3166413473575584,-1.7269838825,21.9999984,0.6539999999999999,2,32,281.2001892267608,730.991765,mp-1175374,Li9Co7O16,https://materialsproject.org/materials/mp-1175374,10.373326590014576,85.7895780836037,9.432096799906684,95.63297386642692
-5.2414236,-10.4828472,8.91730299008134,0.4028286216666661,2.7539384,0.0,166,2,30.4859171282738,163.7132,mp-1224956,FeAg,https://materialsproject.org/materials/mp-1224956,58.311790573568324,52.377682232830935,83.93377893897394,14.308501353387802
-5.7992208540625,-185.57506733,4.261299154957928,-1.8638718906849991,20.0,0.3807999999999998,1,32,281.7385297187722,723.001465,mp-1175797,Li9Mn2Co5O16,https://materialsproject.org/materials/mp-1175797,11.329715870598614,85.96050741534674,8.640509858709107,95.39837712057655
-5.50336343875,-132.08072253,4.230212372184627,-1.742831666041667,14.0000001,0.7355999999999998,2,24,210.10682849559888,535.245775,mp-1174494,Li7Co5O12,https://materialsproject.org/materials/mp-1174494,9.075052939061594,85.52949685294121,10.135807049178734,95.36029559192377
-8.931531455,-17.86306291,15.418243008468915,0.13735257999999995,2.8999999999999998e-06,0.0,166,2,31.26089409056882,290.26,mp-1219935,PdW,https://materialsproject.org/materials/mp-1219935,62.675195727696504,59.96960787366661,83.65400123500616,14.764192254835384
-8.37068911,-33.48275644,9.772293547885257,0.19567126749999808,0.0010875,0.0,221,4,66.62956591891248,392.11585,mp-1187866,YRu3,https://materialsproject.org/materials/mp-1187866,68.08301200686265,58.88239970234365,57.85308155904804,41.47310566231477
-10.9548901175,-43.81956047,12.423884865140927,0.30283147812500033,0.0003701,0.0,166,4,63.357021419495496,474.027,mp-1219517,ReMo3,https://materialsproject.org/materials/mp-1219517,62.916504807748964,59.72649717074872,83.40663142368211,15.335578070788143
-4.997279533846154,-64.96463394,4.282089554665238,-1.1303070534615391,1.9999997999999999,0.4870000000000001,166,13,156.21878758006685,402.8468,mp-18718,Ca(NiO2)4,https://materialsproject.org/materials/mp-18718,6.769648142226819,74.23064798825132,18.331624989663307,91.44611528119627
-7.050580315,-42.30348189,5.740175335500853,-1.789189167500001,5e-08,0.6634000000000002,194,6,74.02121353919063,255.8776,mp-1094123,MoO2,https://materialsproject.org/materials/mp-1094123,49.60499785066768,18.377046275778074,42.421647081379525,30.28642978091407
-6.81861118,-27.27444472,10.340760473837591,-0.7981242275000016,0.000234,0.0,221,4,65.91630364322714,410.48400000000004,mp-1017543,ZrPd3,https://materialsproject.org/materials/mp-1017543,68.06014143726877,59.03172065170367,58.0021767970258,41.42184966823777
-5.8265923475,-93.22547756,3.9834403764576387,-1.95645238012,7.0000005000000005,0.5831999999999997,12,16,138.0932563380988,331.26968999999997,mp-1222526,Li5Mn2NiO8,https://materialsproject.org/materials/mp-1222526,6.639138793809877,86.09424911113193,-5.0647967132589296,94.39316607651912
-6.197193682666668,-92.95790524,4.417811195295401,-1.8662585907946665,9.0000001,0.22140000000000004,2,15,141.5392560765912,376.56068,mp-779153,Li3Mn2(CoO4)2,https://materialsproject.org/materials/mp-779153,12.632354337718706,78.35730205200895,17.394397049876062,82.60694379141073
-9.409184555,-112.91021466,11.49233829119444,-0.2927855941666664,11.9704094,0.0,156,12,168.06869335584852,1163.1778800000002,mp-1224446,Hf3TaFe8,https://materialsproject.org/materials/mp-1224446,71.12649847227141,49.77513052342979,71.11276585833636,21.45793572521677
-7.72459825125,-61.79678601,17.52680954289391,-0.6536917837499994,4.1e-06,0.0,59,8,128.50124976108108,1356.31676,mp-1078699,NbPt3,https://materialsproject.org/materials/mp-1078699,62.10019789010021,56.31774126313167,81.21786488153327,15.987815294269328
-6.5733910025,-157.76138406,5.117777428587119,-2.097779713541668,0.0,0.4164000000000003,15,24,207.50203972532023,639.5208,mp-1210877,Li2TcO3,https://materialsproject.org/materials/mp-1210877,1.4453526681790738,73.88003051989372,-0.07259297352640277,57.01782408005767
-9.75409582,-78.03276656,12.666326721522045,-0.09313129999999957,1e-07,0.0,223,8,126.61617881838472,965.808,mp-1232,Mo3Pt,https://materialsproject.org/materials/mp-1232,50.94715831315382,40.333834265948134,70.42514707042895,19.6807343781019
-7.0429820833333325,-42.2578925,9.153781286673008,-0.4942353988888885,0.0,0.0,191,6,65.47287547100724,360.921585,mp-20193,DyCo3B2,https://materialsproject.org/materials/mp-20193,55.283795052152755,26.24790442643917,68.2678780308905,19.31774822698856
-2.4966639616666666,-29.95996754,6.63123465358479,-0.0761032594444444,1.85e-06,0.0,194,12,240.43674322444744,960.1656,mp-1094121,MgAg2,https://materialsproject.org/materials/mp-1094121,49.0599852208584,41.25046411029903,50.254056680521145,4.598067459934165
-4.953804625,-39.630437,4.771633164280963,-1.3994102731250004,1.1180736,0.0,119,8,69.64186070155186,200.11900000000003,mp-754716,Li2CuNiO4,https://materialsproject.org/materials/mp-754716,13.632355322864582,78.02749521672538,8.693847544327463,75.33922420810165
-9.003941445,-36.01576578,13.905780245192569,-0.6703889487500003,6.69e-05,0.0,221,4,65.28882825972157,546.74541,mp-1150,URh3,https://materialsproject.org/materials/mp-1150,63.29317442165473,55.901688901901615,80.38569414966334,15.593810826167216
-6.6114637605,-132.22927521,3.5571850416627786,-2.6209622673750004,3.0000001,3.3036,2,20,168.89431709633357,361.8032,mp-765411,Li3CrSiO5,https://materialsproject.org/materials/mp-765411,5.379900077962726,85.80991533266541,-5.243623680762633,94.46934343186865
-3.81059394875,-30.48475159,16.52699104539187,0.08918639374999993,2.05e-06,0.0,194,8,130.53491846468424,1299.186214,mp-976806,NiAu3,https://materialsproject.org/materials/mp-976806,63.269843785312176,55.82652150912265,80.25928406984274,15.693463370770868
-7.25657339375,-116.1051743,12.765412263171198,-0.8844099787500008,0.0,0.0,194,16,258.9914967476879,1991.0,mp-11453,HfPd3,https://materialsproject.org/materials/mp-11453,61.975075218618926,55.36498919885069,81.22716179450832,16.343121093944138
-4.6319440315384615,-60.21527241,5.003119364306677,-0.8210844719230775,2.0000001,0.2625000000000002,166,13,142.11253044126434,428.1778,mvc-10443,Zn(NiO2)4,https://materialsproject.org/materials/mvc-10443,4.260969164178237,80.14662167806706,12.96635196732228,66.78848095602669
-5.510546876,-27.55273438,3.0390860976489282,-2.2533718102500004,1.9999997999999999,0.0,221,5,61.404436717477104,112.3812,mp-1183532,CaMgO3,https://materialsproject.org/materials/mp-1183532,-12.59287413623051,52.037699939639595,85.95836814074595,21.81937259032339
-9.17550812,-36.70203248,6.703102100702035,-0.5002837461899999,2.6658084,0.0,160,4,33.43014375406689,134.947545,mp-1245401,MnCrN2,https://materialsproject.org/materials/mp-1245401,30.76871678028573,55.36682400023698,85.2904218613092,19.066132071970166
-7.581289150000001,-151.625783,4.165760035124468,-3.1586386952500014,2.99999995,3.3738,7,20,182.51604282796487,457.8742316,mp-762236,Al3CrO6,https://materialsproject.org/materials/mp-762236,7.203226052350254,61.51451624565872,7.485571289355365,50.31043038454352
-3.7279540475,-14.91181619,2.72670356468203,0.02014913250000028,0.000111425,0.0,194,4,65.72610060718745,107.9261544,mp-1183144,Al,https://materialsproject.org/materials/mp-1183144,68.07029944544215,59.09862085943402,58.095210604362194,41.363054485555466
-6.994298330833334,-167.86315994,4.559389409355108,-1.9292950760922227,11.999998699999999,0.0,8,24,252.5151753473607,693.33812,mp-771910,Ti2Mn3Co3O16,https://materialsproject.org/materials/mp-771910,0.4071281270313663,72.23815988032642,2.509338504444097,58.33122156788265
-4.64019361,-18.56077444,7.029137800859019,0.27143016374999984,0.0012599,0.0,221,4,65.34618650256115,276.6134,mp-1186341,NiGe3,https://materialsproject.org/materials/mp-1186341,67.93236654175907,59.278020365905476,87.84026991438743,19.004808230890568
-5.1621742875,-20.64869715,7.12791823911921,0.5946976812500004,0.0026171999999999996,0.0,221,4,63.56574541132291,272.858045,mp-1186709,MnGe3,https://materialsproject.org/materials/mp-1186709,67.25938956157981,60.22495315618443,87.77202703834814,18.575539899136885
-5.604860443333332,-16.81458133,9.478312222246887,-0.6176178433333336,0.0054091,0.0,139,3,65.75714205855218,375.34,mp-1063239,DyPd2,https://materialsproject.org/materials/mp-1063239,24.745721129262343,7.119665726814488,57.541607060043745,32.79845662294445
-7.1594200379999995,-35.79710019,6.8527696703678185,0.02121786904800018,1e-07,0.0,166,5,49.57145575769866,204.57319,mp-1245646,Co2NiN2,https://materialsproject.org/materials/mp-1245646,30.091893141406736,56.49471544545638,73.93155642832507,7.8399950646317444
-5.5153724014285705,-154.43042724,4.266324677851404,-1.7350309758035725,8.9999999,0.8186999999999998,2,28,246.4225097540497,633.11877,mp-1174191,Li4Co3O7,https://materialsproject.org/materials/mp-1174191,10.197719811809687,85.76994396329606,9.105533911709768,96.00473854820021
-5.4043057325,-21.61722293,10.97337752459217,-0.5183499087500003,0.0003854,0.0,221,4,66.2755183368968,437.97,mp-718,SnPd3,https://materialsproject.org/materials/mp-718,68.22595379523653,58.719146040830324,57.857358090522936,41.40040991741068
-10.4138490625,-41.65539625,10.10945172817167,0.4484939975,7.5e-07,0.0,194,4,63.03491812662808,383.76,mp-1066523,Mo,https://materialsproject.org/materials/mp-1066523,67.22318173714764,60.93980020457612,88.44805450743532,18.167884206006192
-6.61253745625,-158.70089895,4.520249772413128,-1.5642651279966664,17.0000002,0.21029999999999996,1,24,256.6545929020554,698.654375,mp-1176520,Mn2Cr3Co3O16,https://materialsproject.org/materials/mp-1176520,0.3493867162523417,72.22736383819857,1.6323645362403856,58.894221623433076
-5.605565646666666,-16.81669694,9.561526592731514,-0.6274504183333333,1.3800000000000002e-05,0.0,139,3,65.60692567546229,377.77032,mp-1062597,HoPd2,https://materialsproject.org/materials/mp-1062597,24.737074427623767,7.122594912667988,57.55993874125929,32.75883946111787
-6.840353480625,-109.44565569,10.336422262079513,-0.8198665281250008,0.0,0.0,194,16,263.7758752546274,1641.9360000000001,mp-30842,ZrPd3,https://materialsproject.org/materials/mp-30842,68.05494428694814,59.03352492095884,58.11789611616623,41.30165055960268
-10.21233160625,-81.69865285,15.241773882454606,0.9856296440625004,4.09e-05,0.0,194,8,120.89895837439812,1109.7086800000004,mp-1187218,Ta3C,https://materialsproject.org/materials/mp-1187218,56.37772930467368,57.74560390719221,76.08173511865306,15.278527783354914
-7.92163001,-31.68652004,11.487474557180636,0.18475050249999914,0.00028960000000000005,0.0,221,4,66.80265419690339,462.13535,mp-1187366,TbRu3,https://materialsproject.org/materials/mp-1187366,61.999361337299995,54.343841513054905,57.57488994478254,38.247252702254634
-6.430500207857143,-90.02700291,4.3369176381327135,-1.905738548571428,1.99999995,0.5993999999999997,74,14,139.26883790218722,363.73579,mp-762011,LiCrCoO4,https://materialsproject.org/materials/mp-762011,1.4176814213068172,68.73911937326626,17.46821015711555,84.04797214229917
-7.73356222,-30.93424888,8.510602185125576,0.2673419300000006,9.7536319,0.0,221,4,66.29611247828348,339.78113500000006,mp-1185494,LuMn3,https://materialsproject.org/materials/mp-1185494,48.89118650411611,36.85150048939328,58.20886983469853,33.90127247273008
-6.719584312083334,-161.27002349,4.691317615209745,-1.5960415456566668,8.00000045,0.052299999999999784,186,24,249.0056103640117,703.4850600000002,mp-773167,Mn3CoO8,https://materialsproject.org/materials/mp-773167,0.5473105151528959,72.25546391282298,2.2822431222964976,58.14070951326562
-6.907034929574468,-324.63064169,3.9780517332908936,-1.6427525305191493,41.000001,0.0,12,47,557.7015540347805,1336.051475,mp-776603,Mn15O32,https://materialsproject.org/materials/mp-776603,6.4194230007826905,71.15544551232496,16.261818171617374,84.14585548983746
-8.019816233333334,-48.1188974,10.172074547533033,-0.5796055638888891,0.0,0.0,191,6,61.52888465338352,376.911585,mp-7804,HfCo3B2,https://materialsproject.org/materials/mp-7804,55.26838691439322,26.343607503620078,73.48211032392194,15.453144657590844
-7.72261584625,-123.56185354,17.539787438980955,-0.6517093787499997,2.5e-08,0.0,11,16,256.81234033440046,2712.63352,mp-12700,NbPt3,https://materialsproject.org/materials/mp-12700,62.09816496220727,56.3354184758855,81.39400432644142,15.376389871114784
-5.9306004539999995,-29.65300227,8.58787635963094,-0.07127263947600042,5.2600000000000005e-05,0.0,221,5,59.70851074327903,308.7969,mp-1017632,Ni3SnN,https://materialsproject.org/materials/mp-1017632,51.066108197035476,61.840003654763954,83.7463618794283,11.171026332966028