energy_per_atom,energy,density,formation_energy_per_atom,total_magnetization,band_gap,sgr,num_sites,cell_volume,weight,mp_id,formula,URL,tsne_cry_0,tsne_cry_1,tsne_xrd_0,tsne_xrd_1
-2.60324129,-7.80972387,3.739502084555813,-1.4624291871733333,0.0,3.4645,12,3,81.40255796430127,183.317,mp-695850,CdCl2,https://materialsproject.org/materials/mp-695850,14.426037742840615,9.793442642359363,28.31612775130119,-44.05900102743396
-3.7740920782142857,-105.67457819,5.043672922089202,-0.5516058707217267,1.5e-07,0.4615999999999998,9,28,659.6479917643202,2003.5956,mp-542199,Ag4HgGe2S7,https://materialsproject.org/materials/mp-542199,-0.043332172419688855,9.615095003721057,-16.470979832374674,-70.2316083428898
-3.855661203333333,-11.56698361,5.13856414576062,0.04772127166666648,3.3e-06,0.0,164,3,91.54437287778364,283.2855,mp-2755,SiTe2,https://materialsproject.org/materials/mp-2755,20.05759668950816,10.613597676575065,7.98791483830095,-53.807163658190994
-3.755822698928572,-105.16303557,4.7215874892502265,-0.74638708764881,1e-07,1.541,2,28,801.5470194330632,2279.124,mp-1006591,Mg(InSe2)2,https://materialsproject.org/materials/mp-1006591,15.559818674308731,13.261888825963213,-11.59776635282424,-12.264466860502436
-9.680997793333333,-58.08598676,6.747564434098427,-3.358205386750833,6.99999965,1.0983999999999998,129,6,102.52959921977529,416.6268064,mp-3799,GdSF,https://materialsproject.org/materials/mp-3799,14.78816845180658,-4.8618687960118026,4.284424814850269,-10.29625352911472
-3.076896629166667,-36.92275955,4.866578117104852,-0.569133880277778,1e-07,1.5714,14,12,439.921646439564,1289.288,mp-29236,InTeBr,https://materialsproject.org/materials/mp-29236,11.952337076837926,4.023930085104748,-11.64881766117018,-7.533885920983304
-7.35426229,-58.83409832,5.4466715581473935,-1.8843362348382142,4.83432465,0.06799999999999963,129,8,150.09056657116682,492.30641399999996,mp-19826,NdMnPO,https://materialsproject.org/materials/mp-19826,18.283556042208573,-39.14509111163359,18.704054999100112,-41.99272993133285
-7.008186538636362,-308.3602077,4.03254582215207,-2.8441955149512994,1.00002165,0.36309999999999976,176,44,621.8048985427204,1510.025772,mp-1208724,Sr5P3O14,https://materialsproject.org/materials/mp-1208724,-20.01537799055968,-32.467492760105905,-9.808557564255937,-33.58661760371911
-3.2373678257142857,-22.66157478,3.4885227487501957,-1.5321764857142857,0.0,4.5252,65,7,170.31445483392068,357.80300000000005,mp-29009,Li2MgBr4,https://materialsproject.org/materials/mp-29009,-0.8630962176599505,12.316298659333901,-27.419091325720334,-69.6739253407042
-4.1212076689999995,-41.21207669,3.9356027757959087,-1.361066836402299,1.2946523,0.0,194,10,314.79740737899886,746.0935999999998,mp-569807,RbTiBr3,https://materialsproject.org/materials/mp-569807,-1.6978183339541906,13.175741880047589,27.48201626712297,-40.65348816968913
-5.578682256875,-89.25891611,6.259139737675322,-1.69018271640625,0.0,1.7673,19,16,321.16267585958695,1210.572,mp-1105845,LuCuS2,https://materialsproject.org/materials/mp-1105845,16.151856444696918,-13.010998625407893,-10.294797460299657,-16.734095843499095
-7.0453843964864875,-260.67922267,3.8519047563649713,-1.4009406808445948,54.02152420000001,0.0,166,37,766.942106724805,1779.0535949999999,mp-1100884,Y6Mn11S20,https://materialsproject.org/materials/mp-1100884,21.942772521442734,23.931252561012254,28.797405090013942,-42.4677542031497
-4.333150214255318,-203.65806007,4.230657502628191,-0.7282969342486709,0.0002841,0.5070000000000006,1,47,1160.4296371502744,2956.498,mp-767137,Li3Sb17S27,https://materialsproject.org/materials/mp-767137,0.6122473098151892,-2.142767942365724,-29.917558699905157,-35.1873089303902
-4.63863208,-83.49537744,4.999350204715316,-0.7443663174720625,0.0,1.2581999999999995,11,18,456.5418139986361,1374.5009037999996,mp-570706,CsTiCu3Se4,https://materialsproject.org/materials/mp-570706,14.2743003339964,22.680329833493385,-12.735448422710284,-71.82728779670028
-4.95617314,-14.86851942,3.8257755234227866,-0.8170801999999995,5.0000002,1.5991,164,3,93.20834147871395,214.746045,mp-28306,MnBr2,https://materialsproject.org/materials/mp-28306,20.40610183191078,10.91630400700012,28.0770232207364,-42.94612021374285
-3.3481826000000003,-23.4372782,5.500923886588706,-0.2376950357142858,1.4e-06,1.0068,87,7,234.68411145248845,777.446,mp-2371,Ga2Te5,https://materialsproject.org/materials/mp-2371,17.197889586875814,12.456121829412568,-17.165219429201894,-13.851113083519799
-8.348160692352941,-141.91873177,4.5115163641004745,-2.2217515507411765,12.9999994,0.109,2,17,499.45299524362986,1356.9631949999998,mp-1205464,Gd6CoCl10,https://materialsproject.org/materials/mp-1205464,-1.5080659502058815,4.205310151325026,-34.60051202677467,-30.684053096551104
-8.833524907142857,-61.83467435,5.264093852514826,-2.3403970787157147,2.0000003,0.0,164,7,111.11751231446124,352.2549,mp-1025352,Ce2C(NO)2,https://materialsproject.org/materials/mp-1025352,-9.976717895556892,-59.07499871809746,-24.047022751990017,-69.47028208929326
-7.275847556022726,-640.27458493,3.8348141247866403,-2.9351726706818173,0.0,3.454,76,88,1347.9599012041335,3112.9504,mp-19660,Sr2V2O7,https://materialsproject.org/materials/mp-19660,-23.03055628584519,-33.2067046737841,-5.411217033086333,-25.34690657946064
-6.069575560357142,-169.94811569,3.7981949088048,-1.0880650550595246,2.99999995,0.0,2,28,663.3916131553693,1517.3932,mp-1247517,ZrCrAgS4,https://materialsproject.org/materials/mp-1247517,-2.2041242047759524,9.249683560322161,-14.207819482557491,-70.84251678146984
-3.333185849236111,-479.97876229,5.1845970542140165,-0.3630935325173614,9.196666666666666e-05,0.9166999999999998,7,144,3916.1332497744734,12227.0976,mp-685555,HgAsS2,https://materialsproject.org/materials/mp-685555,-7.624793820789804,-0.6718823609166088,-32.22814641268171,-45.015731940579386
-6.3616365014285705,-44.53145551,3.2144256671256586,-2.045781961535716,3e-07,1.0766999999999998,10,7,171.18728253773162,331.37961928,mp-1220690,NaYZrS4,https://materialsproject.org/materials/mp-1220690,14.742749753064857,10.132280375612767,28.192464925969876,-43.40732306342357
-6.412271437999999,-64.12271438,5.964976782912685,-2.4754274379375003,1.8000000000000001e-06,0.8916,63,10,231.28155715480747,830.808,mp-1080801,NdLuS3,https://materialsproject.org/materials/mp-1080801,9.014887072620846,-4.540700675811929,-6.901515163635921,-12.700128957022637
-3.5980370078125,-115.13718425,2.8984367645143143,-1.2702979502362504,0.0007466,2.9584,62,32,544.9350216525777,951.17288,mp-1194501,CdH3Cl3O,https://materialsproject.org/materials/mp-1194501,-3.4285296733935966,7.811944344276722,-34.234055945528695,-33.26963495974846
-2.7348654135,-54.69730827,4.477475984589098,-0.9378629318040002,0.0,1.0213,14,20,549.843825475586,1482.5984,mp-27776,Cd2AsCl2,https://materialsproject.org/materials/mp-27776,-1.5175914285888392,-1.1502400574626308,-30.777753948278733,-35.394792573410804
-7.849303839444443,-282.57493822,5.943944344725598,-3.1540597152777767,0.0001901,2.3054999999999994,15,36,529.4014529691461,1895.0068,mp-1209740,Pr2MoO6,https://materialsproject.org/materials/mp-1209740,-21.636103153086935,-66.62040118870533,-9.042386094039072,-66.2673693022261
-2.972237624,-29.72237624,3.555778550546309,-1.1928979350189652,0.0,2.4728,225,10,349.4405344216888,748.2709692799998,mp-1114660,Rb2NaAsBr6,https://materialsproject.org/materials/mp-1114660,0.2394078588393432,13.228921434694664,-29.11847687701611,-70.56507934856225
-4.28269863,-231.26572602,5.771530767588272,-0.2590201314814814,1.4e-06,0.0,223,54,1338.2711532294838,4651.4252,mp-570662,Ba4Ag3Ge20,https://materialsproject.org/materials/mp-570662,18.87439180534016,23.704117264539036,16.750261362640373,-46.22890023960931
-3.132013276666666,-9.39603983,3.3293589164818007,-1.5112251033333333,0.0,4.4707,164,3,91.8275355528768,184.113,mp-30034,MgBr2,https://materialsproject.org/materials/mp-30034,-0.9362180551565252,12.330121542971087,7.97625987585858,-53.76451996469493
-2.4876397716666667,-29.85167726,4.6619762323951255,-0.7330590544583332,0.0,1.3509,36,12,352.9106547296382,990.7994,mp-1180786,KHgBr3O,https://materialsproject.org/materials/mp-1180786,-2.6702322450372558,1.9654300332724461,-5.1728142540999515,-20.54494588163436
-5.17612718,-20.70450872,6.684034186397327,-1.617204951197917,1.2e-06,2.2090999999999994,166,4,84.6990845675835,340.93241,mp-1216540,TmAgS2,https://materialsproject.org/materials/mp-1216540,22.55814585490952,10.610918422914443,28.930264757637783,-40.74557072156551
-7.8209621748076925,-406.69003309,3.259901585086037,-3.2284189127564105,0.0,5.4876000000000005,62,52,597.8288092930499,1173.6328,mp-6032,SrSi2(BO4)2,https://materialsproject.org/materials/mp-6032,-21.29035452143883,-30.905093058905052,-20.44732612698096,-31.21689392330225
-3.9441167522916665,-189.31760411,5.722279872322647,-0.5401427749305553,2.7600000000000003e-05,0.04659999999999975,62,48,1420.0100666083176,4893.407999999999,mp-644875,Ba2(InAs)5,https://materialsproject.org/materials/mp-644875,21.556181518228694,-7.83820891108732,-2.7166486513128585,-13.682024229932198
-4.15786717,-12.47360151,7.914048903917577,-0.3368764333333332,7.94e-05,0.0,164,3,75.87571607594577,361.62,mp-782,Te2Pd,https://materialsproject.org/materials/mp-782,28.29114006976605,23.76367481439348,16.108530136496288,15.861766983855164
-4.8066023541666665,-57.67922825,5.831130505353848,-0.5166142400000003,1.5e-07,0.4017000000000008,36,12,384.02217005383835,1348.5279999999998,mp-13542,ZrGeTe4,https://materialsproject.org/materials/mp-13542,15.235648882983837,0.6751531069382901,-1.134855443615582,-17.318310278404002
-8.47337649,-542.29609536,4.362091384715855,-2.2138359460525,35.0000443,0.5569000000000002,14,64,1719.6587073186167,4517.3935999999985,mp-1199531,Gd5C2Cl9,https://materialsproject.org/materials/mp-1199531,-1.384884025183576,3.8108622429872883,-31.33054684269267,-29.829015226163783
-5.699372039642857,-159.58241711,5.3949082032708695,-2.197408219107143,0.0,2.0076,62,28,618.6716627022952,2009.996,mp-1232133,Lu2MgS4,https://materialsproject.org/materials/mp-1232133,12.170044036159807,6.0847405451367775,-7.042721374110719,-16.90794462112475
-5.590003018571429,-39.13002113,7.873032181319628,-0.3185401300000003,3.9234188999999997,0.0,12,7,162.02624998560205,768.2071,mp-1077939,Cr(Te2Rh)2,https://materialsproject.org/materials/mp-1077939,28.92370644858866,23.717368624177876,26.159560593523175,-43.94939276125868
-8.228609674651164,-707.66043202,6.2750766998593805,-3.6112342377131794,0.99137025,0.04730000000000012,14,86,1235.4653211692025,4668.7487999999985,mp-1203797,Nd13(B2O13)2,https://materialsproject.org/materials/mp-1203797,-10.99777148407241,-59.66026204881853,-19.58856215003836,-57.72942403140682
-2.884721657,-57.69443314,4.293996309207459,-0.9353286547325717,2e-07,1.4004,14,20,505.35770519832397,1306.807048,mp-31276,Cd2PCl2,https://materialsproject.org/materials/mp-31276,-0.9848328943665626,-1.965839610470069,-29.129887122735816,-34.531540809730906
-3.3892888594444446,-244.02879788,4.399612856374848,-0.589950326755696,0.0,1.379,86,72,2407.387668666803,6378.394896,mp-569349,Rb2HgPSe5,https://materialsproject.org/materials/mp-569349,-0.5459633136592026,0.051227131369959135,-3.3900620554123764,-21.366179802545695
-3.9620581925,-47.54469831,6.393195548314202,-0.12843542499999985,4.61862375,0.0,14,12,327.6546398970437,1261.4940900000001,mp-1221521,MnZnTe4,https://materialsproject.org/materials/mp-1221521,21.427917879048376,7.936726696457621,6.5346402202983995,-10.340723196688916
-4.52802711,-13.58408133,4.4697871130803355,-0.3030863299999999,3.9999998999999997,0.01529999999999987,12,3,113.60747049064992,305.80503999999996,mp-27215,CrI2,https://materialsproject.org/materials/mp-27215,-6.536950218582133,-12.576162488872955,-18.838867997826874,-15.985227084991644
-3.550949144285714,-49.71328802,5.276566312102663,-0.7284590652380954,1.24e-05,0.9243,66,14,520.9278225265293,1655.3120000000001,mp-20397,Sr(InTe2)2,https://materialsproject.org/materials/mp-20397,12.461743482773034,1.2555663933084296,-16.035269892320162,-7.576401078394826
-5.283780349574467,-993.35070572,2.270850509538052,-0.5864598499029778,0.0033951999999999997,3.4344,14,188,2434.005228021261,3328.5950399999997,mp-707501,CdH24C4(BrN2)6,https://materialsproject.org/materials/mp-707501,-29.702838247292608,-6.3032245368218796,-74.62530375209275,-9.938714157354758
-3.768513715,-60.29621944,3.783931860796821,-0.3176745849375,0.7048439000000001,0.0,15,16,354.8828122617436,808.68461856,mp-1179909,NaCu(IO2)2,https://materialsproject.org/materials/mp-1179909,-3.0269083992041543,-2.0317757786335555,-31.342977199447738,-34.05617662794834
-3.142535277,-31.42535277,3.7586001666851914,-1.6651814062413792,0.0,4.0445,194,10,350.71845793789464,793.8449038,mp-29750,CsMgBr3,https://materialsproject.org/materials/mp-29750,-3.7162426469730425,-27.758896651044182,-26.83882129243205,-67.8565384141006
-3.1112792197916668,-149.34140255,4.0444128108148965,-0.8929805836223957,0.0,1.8901,62,48,1121.6709054046337,2731.94430848,mp-1024048,Na4Zn3Se5,https://materialsproject.org/materials/mp-1024048,-3.7798160814645207,-0.6366080156098183,-32.698490536324485,-35.06980412592908
-1.8281171425,-7.31246857,3.685770918986,0.2597485764843752,1.73e-05,0.0,139,4,122.44285621479614,271.777,mp-974330,SBr3,https://materialsproject.org/materials/mp-974330,12.468421282301376,12.421173600575802,24.367015770253662,-40.210694427817394
-7.601150966,-114.01726449,5.454147927225477,-3.20365831925,3.2e-06,2.9261000000000004,164,15,267.6504919598425,879.11536,mp-1214396,Ba4Nb2O9,https://materialsproject.org/materials/mp-1214396,-15.231098539255305,-79.99842413563606,15.99311939625981,-72.267281168682
-5.891483786666666,-17.67445136,6.805004991809784,-0.4254939766666664,6.5000000000000004e-06,0.0,164,3,84.94398384112645,348.10638,mp-1018150,NbTe2,https://materialsproject.org/materials/mp-1018150,21.52037741881354,1.9638779515324825,21.739903578253827,-36.749728353360226
-3.0506115683333337,-18.30366941,4.520651820115407,-0.9189447273366668,1.0000001,0.0,186,6,120.38156609025889,327.7268,mp-1077089,CdClO,https://materialsproject.org/materials/mp-1077089,-7.8708474969792865,5.8978190709107965,-34.51140401650429,-51.57124244837083
-6.121911434166668,-73.46293721,7.071514749486632,-2.9925021624279173,1e-07,1.8351,194,12,250.687791459895,1067.5704528,mp-1207668,TmSeF,https://materialsproject.org/materials/mp-1207668,15.642981181050194,5.216891994714096,-8.098882301505396,-7.759852994935278
-3.475753038571429,-48.66054254,5.501768675376917,-0.3048989985714289,0.0,0.27639999999999976,111,14,432.4950436296605,1432.961,mp-1212671,Ga5CuTe8,https://materialsproject.org/materials/mp-1212671,17.293156376945447,14.242488471422256,5.821325891292188,-15.282381433691814
-4.823238789807691,-250.80841707,4.7288074161714775,-1.1492404896618036,0.0023571,0.9602999999999996,163,52,1606.557822214785,4575.082163800001,mp-1213369,CsTb(NbBr3)6,https://materialsproject.org/materials/mp-1213369,7.875185187032789,1.2755959624396214,-2.09757760743448,-20.820794060037453
-8.230258410000001,-41.15129205,6.2169805194309555,-3.473079334312501,1.9999999,0.0,164,5,91.96049680727673,344.2958000000001,mp-3972,Ce2SO2,https://materialsproject.org/materials/mp-3972,1.1410675054755015,-58.500334463191756,-13.599491257646164,-66.1559792663937
-4.3859493675,-87.71898735,4.118713500330428,-0.6043102054374998,0.00015725,0.9670999999999994,26,20,510.08308691138177,1265.1832,mp-1219513,Sb3AsS6,https://materialsproject.org/materials/mp-1219513,-0.03304310272199429,-2.78177606924,-29.3755825824262,-35.6661501385458
-3.442526781397849,-640.30998134,5.1318063386800965,-0.5191630009218197,1.5446579,0.000500000000000167,18,186,5637.01861954019,17420.902,mp-680136,Cd13(In13Se27)2,https://materialsproject.org/materials/mp-680136,15.407528542965041,14.573835167725345,5.836048378606481,-16.577533724127562
-6.09551680525,-243.82067221,3.84025656360346,-1.8419187335208336,0.000971675,0.6741000000000001,18,40,764.6197654834958,1768.3029439999998,mp-1201644,Sc3InS6,https://materialsproject.org/materials/mp-1201644,17.66886441638713,6.179345343878782,-2.117474444816147,-21.87510013830281
-2.9508823915625,-94.42823653,4.173874595756148,-0.19181426216594846,0.0,1.0048,142,32,1308.3910004250947,3288.7272304000003,mp-866501,CsGe,https://materialsproject.org/materials/mp-866501,-6.347236370879897,-24.81756567752347,-27.647816107238768,-57.55696185575265
-5.34152149,-37.39065043,5.693080823281611,-1.9231597658928583,7.499999999999999e-06,0.6783000000000001,119,7,166.41078726669645,570.5316399999998,mp-34735,Ho2CdS4,https://materialsproject.org/materials/mp-34735,17.67985648284105,9.209006589335763,-28.89134481280215,-73.72161299421869
-6.60604589625,-52.84836717,5.940566537507817,-0.17623597550781336,15.815771,0.0,44,8,174.10220695456943,622.8494000000002,mp-1226328,Cr4Te3S,https://materialsproject.org/materials/mp-1226328,20.917959965120552,8.973477002241346,26.90094529196168,-39.88892064743784
-7.238262837272727,-318.48356484,3.531035596923984,-3.258935405048702,0.0,5.1125,62,44,656.8413437962307,1396.733296,mp-5616,Sr2P2O7,https://materialsproject.org/materials/mp-5616,-21.298379787508463,-31.226654138698866,-18.544473531135694,-14.25775976454156
-3.478857162058824,-354.84343053,5.471551547716877,-0.3429962720588237,6.586666666666666e-05,1.0051,154,102,3462.5404412330754,11409.228000000001,mp-686076,Ga6Te10Pb,https://materialsproject.org/materials/mp-686076,17.278814522990317,12.42604562994375,-13.33037545194409,-13.827019964479925
-7.647630099285713,-321.20046417,5.628473906959141,-3.5499961721428566,3.8333333333333335e-07,3.36,15,42,848.1410230624957,2874.81324,mp-772798,BaLa2O4,https://materialsproject.org/materials/mp-772798,-4.939746088644703,-62.10720364568303,-19.79112378469711,-54.99017431056188
-7.271441632142857,-203.6003657,5.516436802787251,-3.266917252857143,0.0,3.033,62,28,490.316954307246,1628.87016,mp-756599,La2ZnO4,https://materialsproject.org/materials/mp-756599,-11.425948775159064,-59.931767633447954,-20.098281030519626,-58.40767335315528
-5.943936522142858,-83.21511131,3.478084334533971,-1.6546073083928567,3.0000047999999997,0.7074000000000007,74,14,327.96194316335493,686.9331400000001,mp-1247290,LaMgCrS4,https://materialsproject.org/materials/mp-1247290,12.337160206935891,7.80115370730234,-24.02776465851868,-78.77694069273463
-6.375490867999999,-127.50981736,6.630647527095347,-2.4656150324375004,0.0,0.6113999999999997,62,20,426.79513307932297,1704.2225600000002,mp-8956,Ho2S3,https://materialsproject.org/materials/mp-8956,14.135803825010386,-4.946579508514682,-0.8175987324686108,-13.64610108333431
-5.83305620275,-233.32224811,5.984521291505857,-2.0909798405208333,0.000711425,1.0294999999999996,18,40,870.1355101602368,3135.9362,mp-1204721,Tb3InS6,https://materialsproject.org/materials/mp-1204721,13.069373159823565,-5.4557670982691295,-3.2906137304564,-14.902978013335812
-3.788304585,-30.30643668,3.956818577831384,-0.3792088200000001,2.00000045,0.0,194,8,362.3010839458464,863.3098200000002,mp-865493,VI3,https://materialsproject.org/materials/mp-865493,-3.8620036936390623,-4.808508741393755,-11.58674751552015,-21.693057551980367
-3.934182107857143,-55.07854951,4.1685470785828,-0.986436730416667,0.0,1.3922,10,14,337.2467505230494,846.61,mp-674328,Zn(InS2)2,https://materialsproject.org/materials/mp-674328,-1.78865578874775,9.398283595683418,-14.220713505316567,-70.91979317272265
-2.9481451260000004,-29.48145126,4.014547945416848,-1.3547512296913795,0.0005468999999999999,1.4373,225,10,346.60062441526435,837.94767308,mp-1110642,Cs2NaGaBr6,https://materialsproject.org/materials/mp-1110642,-0.2031409325736313,13.235760455815466,-28.399321973732263,-70.09505108824135
-4.6890369455555545,-253.20799506,4.417861926797177,-1.1747368631517403,0.0,0.5722,15,54,1657.0387312566406,4408.54936,mp-559037,Rb3Nb6SBr17,https://materialsproject.org/materials/mp-559037,7.424370706800164,1.2188085112918567,-1.4148992106231624,-22.373441948599325