energy_per_atom,energy,density,formation_energy_per_atom,total_magnetization,band_gap,sgr,num_sites,cell_volume,weight,mp_id,formula,URL,tsne_cry_0,tsne_cry_1,tsne_xrd_0,tsne_xrd_1
-3.7562650025,-60.10024004,7.176765956971866,-0.922137438463542,0.00023405,0.0,19,16,406.1391230098793,1755.3127999999995,mp-1106005,YbAgSe2,https://materialsproject.org/materials/mp-1106005,27.74037701060973,-0.18594947299156125,13.911074619169517,5.742227434384048
-2.995528312,-29.95528312,3.8821397662542747,-1.2404171061913791,0.0,2.4656,225,10,360.6457745416829,843.14627308,mp-1112664,Cs2NaAsBr6,https://materialsproject.org/materials/mp-1112664,0.722994115204183,12.716807975885393,-29.430256869752718,-70.07267594821498
-7.261745429642858,-203.32887203,5.954588372855163,-2.4961464005357152,6.997893775,0.0895999999999999,62,28,675.1083480607233,2420.896,mp-1193960,Eu(DyS2)2,https://materialsproject.org/materials/mp-1193960,9.0784040234814,-3.996190700885808,-6.842656527679996,-12.902923929773808
-5.9559934583333325,-142.943843,4.786319718266989,-4.0184393687674715,2.6075e-05,6.1004000000000005,62,24,416.8304372221063,1201.4675312000002,mp-1190838,RbLaF4,https://materialsproject.org/materials/mp-1190838,-13.237414490725042,-26.874973290194827,-17.182770522918567,-15.614877054753714
-2.993491591875,-191.58346188,3.4807167405537807,-0.1738522545474135,6.25e-09,1.015,218,64,2413.7021791597213,5059.4496,mp-1888,RbGe,https://materialsproject.org/materials/mp-1888,-6.139436530375343,-4.644994885643985,-23.833017094864502,-32.70191868086464
-4.2680937531578955,-324.37512524,4.7861954039263495,-0.5660638362499997,0.0,0.4605000000000001,14,76,3058.444858319183,8815.39932,mp-560687,Nb3Te8I7O,https://materialsproject.org/materials/mp-560687,13.953513654461815,0.8438303363802375,-15.299526575981481,-5.703790617328624
-9.880848108947367,-375.47222814,6.927097504905281,-3.843430300484607,41.9999987,1.4777999999999998,6,38,586.6728782371379,2447.3620512,mp-1224731,Gd6S3(OF4)2,https://materialsproject.org/materials/mp-1224731,-12.365715462119718,-32.71199349172068,-25.135101990623635,-43.54514262670313
-6.504779600416667,-156.11471041,3.0455651283852085,-2.7760505844270833,0.0,5.9558,14,24,296.91275241109287,544.5624,mp-12372,CaSO4,https://materialsproject.org/materials/mp-12372,-53.67109421738471,18.04529852177945,-11.636277073495854,15.68300331401922
-3.6347591771428567,-50.88662848,5.244643910717508,-0.7779061980952383,6.86e-05,1.0031,66,14,555.5746161428929,1754.726,mp-21183,Ba(InTe2)2,https://materialsproject.org/materials/mp-21183,12.44390770048631,1.1636554011969384,-16.213612565260252,-7.570947468775808
-3.8897709096428565,-108.91358547,4.621825575305223,-0.6236387089360116,5.15e-06,0.6419000000000001,9,28,656.4936994524129,1827.2376,mp-542200,CdAg4Ge2S7,https://materialsproject.org/materials/mp-542200,0.4769081067399811,9.625665958899118,-16.47524005841493,-70.41639207311006
-4.908972948125,-235.63070151,2.6694407643405405,-1.028727469915,2.5e-08,3.0567,2,48,793.0677841507152,1274.915808,mp-759651,ScH6Br3N2,https://materialsproject.org/materials/mp-759651,-28.665338129046674,-7.9199682658502555,-33.12561878668636,-27.51764868804005
-6.018187257857143,-84.25462161,4.137388851656245,-1.8279430489285724,3.0,0.10599999999999987,166,14,363.4968081862565,905.6864099999999,mp-1246659,La3Mg2WS8,https://materialsproject.org/materials/mp-1246659,13.78464304805034,7.56587257132546,-25.40172044190578,-77.27176731416603
-7.821609358000001,-39.10804679,6.72996309383992,-3.5516199313125,0.0,2.927,164,5,90.00610146198228,364.7838,mp-5598,Sm2SO2,https://materialsproject.org/materials/mp-5598,1.2641857715352431,-58.767796865972784,-13.550392016758915,-66.13659367184741
-7.682205694285713,-215.10175944,6.127171907698388,-3.6017532171428566,3.16e-05,3.2348,26,28,492.46410837146345,1817.1281600000002,mp-1227776,BaSrLa4O8,https://materialsproject.org/materials/mp-1227776,-7.663291559044821,-62.59288003497877,-0.4320032051187396,-58.79423061825306
-6.4045290895,-128.09058179,6.298785172445601,-2.4748920919374995,0.000146725,0.7450999999999999,62,20,436.61692238802317,1656.1828,mp-1205297,Tb2S3,https://materialsproject.org/materials/mp-1205297,13.669650603448234,-5.843173553898255,-1.657662268177014,-13.181786017711445
-6.144142734285714,-86.01799828,3.898272319544792,-1.2557399542857144,8.9593847,0.0,166,14,311.74696890197214,731.85547,mp-1246889,LaMg2Mo3S8,https://materialsproject.org/materials/mp-1246889,1.7494025331501482,25.879752352237567,-22.65397317484837,-79.71913475881097
-5.816492067857142,-81.43088895,3.914029308378697,-1.94847272,1.9999999,0.0,166,14,342.4365203590551,807.1515,mp-1247050,Sm3Mg2VS8,https://materialsproject.org/materials/mp-1247050,12.807343742981818,7.804373788280753,-24.317317661632828,-78.48311130005953
-6.373453068,-254.93812272,4.402147687352773,-2.079400867770833,0.001553275,1.0996999999999997,18,40,865.9643878523054,2295.7022,mp-1201568,Y3InS6,https://materialsproject.org/materials/mp-1201568,12.987251566650874,-5.157505332000059,-3.2531071601657118,-15.608261182214635
-8.699189879999999,-382.76435472,6.052950681321901,-3.7466607794318185,0.0,2.8480000000000003,62,44,682.1280998505191,2486.47436,mp-560349,La3NbO7,https://materialsproject.org/materials/mp-560349,-11.205021555310427,-61.907972489466744,-8.632680257905378,-65.9053087389702
-6.6731440590625,-213.54060989,5.864947453301518,-2.288081254101564,1.0675e-05,1.2195999999999998,62,32,652.9518844599547,2306.196,mp-1199023,Dy2ZrS5,https://materialsproject.org/materials/mp-1199023,13.854997775479028,-6.0017105012269605,-0.3844118174246491,-12.56574701544634
-3.0380097283333334,-54.68417511,4.257967386074335,-0.765422931486111,0.0,1.7234,72,18,435.2584129443437,1116.09307712,mp-1024050,Na2Zn3Se4,https://materialsproject.org/materials/mp-1024050,-1.0682093965279922,2.0119628870100934,23.60968529098772,-47.7577961186123
-4.150269294411763,-141.10915601,3.945069144897244,-0.944229995304894,0.0003892,0.5228999999999999,12,34,1091.0971756835124,2592.2027114,mp-1226651,Cs3Sb5S9,https://materialsproject.org/materials/mp-1226651,-7.873217256930536,-8.166846937195803,-22.802651875135695,-31.96963818302943
-3.569142498,-71.38284996,5.2333003389505,-0.5728443349780001,0.0,1.2547,167,20,618.6537963096223,1949.729,mp-979264,Te6RhCl3,https://materialsproject.org/materials/mp-979264,18.260321315190414,2.255788184956944,28.435641140541865,-43.584623298633566
-4.870481194166667,-58.44577433,6.521759967651426,-0.5082558791666667,0.0,0.0,12,12,306.10650821854665,1202.232,mp-30019,ZrCu2Te3,https://materialsproject.org/materials/mp-30019,23.21641260204971,3.4178196279356734,11.47887412943241,4.310402318827148
-4.76565135625,-76.2504217,7.305903714773853,-1.194188689713542,0.000246575,1.2921,19,16,395.2275099974986,1738.88964,mp-1188652,TmAgSe2,https://materialsproject.org/materials/mp-1188652,27.551702444434234,0.010041078131029531,13.450584893960183,5.182588998821045
-4.2206446175,-67.53031388,7.578644035441107,0.17268905833333292,1.411694875,0.0,31,16,367.14838154070395,1675.6527999999996,mp-685618,FeAgTe2,https://materialsproject.org/materials/mp-685618,31.987726966992284,-6.817951285529516,53.09161151499979,0.5369599352146818
-3.4558913375,-96.76495745,4.353178938935093,-0.9108119774014776,5.86913965,1.0526000000000002,167,28,1254.8694468413482,3289.6975714,mp-541738,Cs3Cr2I9,https://materialsproject.org/materials/mp-541738,2.8934924989035,6.481320011332487,-32.463006395007305,-12.840774086645654
-3.08360979375,-24.66887835,4.287628533237356,-0.29145694209667505,0.0,0.2037,123,8,170.41561045183673,440.025086,mp-975140,RbZn4P3,https://materialsproject.org/materials/mp-975140,16.350976968982494,10.868967091652667,24.529054192036764,-39.913759208220526
-5.738476804166668,-68.86172165,3.9943921341211537,-2.2021355566666667,3.5e-07,2.7856,62,12,198.910553244072,478.4752,mp-1179089,SrO2,https://materialsproject.org/materials/mp-1179089,-17.543489534359242,-32.39949045823027,4.490702568427727,-52.72496025192303
-2.154095013625,-172.32760109,3.3517313404672198,-0.1529833073437498,2.5e-08,2.2103,159,80,3159.4465841156825,6377.2159999999985,mp-651332,SeBr4,https://materialsproject.org/materials/mp-651332,-1.0337589480522158,0.008483760011774687,-31.47060461704493,-39.325871500016696
-6.0463831796428575,-169.29872903,5.201781541299408,-2.510295279107144,0.0005621000000000001,2.1789,62,28,690.6498082046259,2163.52,mp-980666,Sr(DyS2)2,https://materialsproject.org/materials/mp-980666,8.835854759836328,-2.109443352453749,-7.5144274498555585,-13.136228439775914
-4.398011500666668,-263.88069004,2.9418260999351387,-0.5231387449226659,0.0,3.3781,14,60,899.1026666373567,1592.85848,mp-600182,CdH8C2Br3N,https://materialsproject.org/materials/mp-600182,-3.035517701417015,7.609016727712568,1.0165331038701095,-16.85662491450596
-4.125764122413793,-239.29431910000002,3.5557473112694162,-2.271012884301897,0.0,1.4135,216,58,916.8961523758728,1963.3690927999999,mp-849476,Li17Ag12F29,https://materialsproject.org/materials/mp-849476,-18.770949400111835,-23.579236639884385,-30.336969184773558,-34.92038710694796
-5.761298394285713,-80.65817752,3.8982905101484686,-1.8875616235714283,3.999994,0.0,166,14,345.5214516300576,811.148045,mp-1247273,Sm3Mg2MnS8,https://materialsproject.org/materials/mp-1247273,12.863387090703275,7.8072389840199365,-24.37736902327447,-78.3960551430497
-5.483679585192308,-285.15133843,4.6890907367766435,-3.3608362210161538,7.999999925,2.0227,14,52,793.8389145111298,2241.6712952,mp-541648,Ba2FeCoF9,https://materialsproject.org/materials/mp-541648,-14.29979299329418,-21.28842696329629,-13.131131151827596,-18.317481200498825
-3.264976363333333,-78.35943272,4.4339350938651485,-0.6206651562356326,5.75e-07,0.8326000000000002,14,24,1083.8714990945136,2894.1300152,mp-574138,Cs2Te3As,https://materialsproject.org/materials/mp-574138,-6.637240832298825,-13.10800732986229,-40.188832791815365,-14.658896959712227
-8.308802307777778,-74.77922077,4.759335084601528,-0.17389104999999935,5.2e-06,0.0,12,9,135.6463941777144,388.78137,mp-1223273,La(YC3)2,https://materialsproject.org/materials/mp-1223273,4.62179655173092,-57.73603823680347,-19.543142450287387,-67.68677961902165
-4.29788739625,-103.14929751,4.833252876586587,-0.8159841662586812,0.0,0.5128000000000004,11,24,556.7279990853742,1620.442,mp-616255,In2Sn3S7,https://materialsproject.org/materials/mp-616255,11.240242002867904,-3.5324589680178766,-6.281585377764598,-18.875682145776434
-7.202550586111111,-518.5836422,3.6940337323041934,-2.7519158754298942,0.0,3.7647999999999993,14,72,1011.7085924517203,2250.646072,mp-558465,LaAg(PO3)4,https://materialsproject.org/materials/mp-558465,-34.92601895469163,-24.39336881787871,-32.88425345510774,-27.49853329319419
-4.532891923928571,-126.92097387,5.340444068678411,-0.04490475877550994,0.0,0.24489999999999945,217,28,599.9751121047335,1929.574344,mp-17568,Ag3Sn2(GeP2)3,https://materialsproject.org/materials/mp-17568,22.0798702788535,-8.441726523125237,4.939915215562032,-20.54339476449
-7.6326660175,-274.77597663,4.732803738920054,-2.6421466837777774,7.00000955,2.9626,5,36,570.8365793903215,1626.9762,mp-1223587,KBaGd(MoO4)3,https://materialsproject.org/materials/mp-1223587,-51.966455367207864,-52.382499077791564,-25.878466490731054,-64.14363367303493
-3.5242313966666665,-21.14538838,3.7636136084955782,-0.3981430441666666,2.6333333333333337e-06,0.0,155,6,131.33891539864558,297.6798,mp-1185845,MgAs,https://materialsproject.org/materials/mp-1185845,20.98549686551013,7.741582188216005,5.784357605703322,-7.878755957624091
-7.650816705,-45.90490023,6.510652497643801,-4.180129739146667,0.0,4.5309,166,6,91.43006506436352,358.4796064,mp-5634,NdOF,https://materialsproject.org/materials/mp-5634,-23.92426062998457,-66.72212317639375,-16.029083198455307,-67.99884125580321
-3.625238206388889,-522.03430172,5.5236722953149835,-0.3733211759056714,2.8999999999999998e-06,1.2275999999999998,1,144,3214.1111990747204,10691.5264,mp-1229314,CuAg64Hg3(As4S15)4,https://materialsproject.org/materials/mp-1229314,15.605347567533402,-14.546394791927845,2.494323712356733,-23.51081560509425
-5.3200216992857134,-74.48030379,5.439443675768615,-1.5950789673214285,2.99999705,0.0,227,14,323.1532153380323,1058.55609,mp-20213,Yb2MnS4,https://materialsproject.org/materials/mp-20213,11.991042684228818,6.763394620587253,-23.135256855974944,-78.55567004775287
-5.4850364733333326,-32.91021884,4.573379268746014,-2.2520774013541662,0.0,2.8776,59,6,199.31278950968246,548.938,mp-28928,DySBr,https://materialsproject.org/materials/mp-28928,12.674565214640904,4.3829773303128015,9.449576376017516,4.744083996874312
-6.315169967,-126.30339934,6.932620586733675,-2.4452475374375005,0.0,0.9358000000000004,62,20,415.87693757550005,1736.25368,mp-974,Tm2S3,https://materialsproject.org/materials/mp-974,14.229067372714248,-4.58740490710267,-0.629821584524839,-13.637809958689905
-8.06485861625,-774.22642716,5.53556412951984,-3.4892147063541668,0.001157425,4.2693,14,96,1330.469481101048,4435.246,mp-1211486,LiPr6B3O14,https://materialsproject.org/materials/mp-1211486,-11.410090167275426,-58.78757961904027,-19.541592350171854,-57.83219584425235
-3.1149410108333337,-37.37929213,4.826637931314876,-1.1092092445545978,0.0,1.6477,62,12,387.81198672317146,1127.2412152000002,mp-755573,Cs2O,https://materialsproject.org/materials/mp-755573,-1.0598304947563242,-29.777738680166774,-26.17773411415291,-57.11884326661783
-5.971950881176472,-406.09265992,6.24413633788628,-2.247026889742648,0.0,2.0746,1,68,1474.999943197818,5546.4524,mp-530870,Tb6CdS10,https://materialsproject.org/materials/mp-530870,16.05053023912363,-4.442244978445066,9.296287343036477,-9.454696094498823
-4.128916702857143,-57.80483384,4.144071998721771,-0.4732635422023814,0.0,0.3243999999999998,2,14,355.4548859068434,887.0798,mp-1220231,NiAg2Sn3S8,https://materialsproject.org/materials/mp-1220231,0.015270807274817319,-4.991928763982107,-16.885787530744462,-18.105634151217547
-5.925558166428572,-82.95781433,3.7217379390719016,-1.885119890357144,3.0,0.5040000000000004,166,14,364.8742287655765,817.7864099999998,mp-1247121,La3Mg2MoS8,https://materialsproject.org/materials/mp-1247121,14.047188554466574,7.519700339189518,-25.69145209860966,-76.82744678549686
-7.426947763157894,-282.224015,4.396525736417622,-3.0644556617105265,0.0,3.2435,8,38,563.958866842207,1493.16554,mp-1218724,Sr3LaV3O12,https://materialsproject.org/materials/mp-1218724,-10.030924764539831,-80.7893931256116,5.897214107522433,-21.942157940593628
-9.38717495375,-375.48699815,5.643044632680759,-2.2937885318541675,20.333529300000002,0.0,58,40,838.0691610384192,2848.028,mp-1212783,Gd3TiS6,https://materialsproject.org/materials/mp-1212783,12.725102776452275,-4.324027113741036,-4.16497275787462,-17.10805218725233
-6.4507220448648654,-238.67671566,5.901779717772831,-2.526842723496622,0.0019808,0.0,12,37,877.6617369281003,3119.3281899999997,mp-1204597,La4(TmS2)11,https://materialsproject.org/materials/mp-1204597,8.828422445095823,-3.0281377092274133,-5.354774180647167,-14.55761941003333
-3.986382448125,-63.78211917,4.478852088717447,-0.04865774812500012,1.625e-07,0.02210000000000001,205,16,441.1686330739173,1189.9323087999999,mp-15621,AlSb,https://materialsproject.org/materials/mp-15621,3.3392239323170263,-2.883598471224273,-3.1499013236497784,-6.164472953743489
-6.3710473488983075,-751.78358717,2.5757571686598384,-2.4915448256489827,0.0007076000000000001,4.2633,104,118,1412.338924260392,2190.7597600000004,mp-1224714,KSr4Si8H17O29,https://materialsproject.org/materials/mp-1224714,-28.79161098767311,-8.023871592503474,-32.90968933448609,-27.493766952567267
-6.280458586428572,-87.92642021,3.529902615770937,-1.5959248273214297,2.9965564,0.0,74,14,317.4500545376756,674.8217,mp-1247018,YMgMoS4,https://materialsproject.org/materials/mp-1247018,2.0156181939050737,26.01262926527643,-22.775097491350536,-79.26774469967741
-5.896556692142857,-82.55179369,4.438020130486767,-1.9249357658928576,2.9999999,0.4737999999999998,166,14,332.4692388474959,888.5699999999998,mp-1247085,Dy3Mg2MoS8,https://materialsproject.org/materials/mp-1247085,12.700440446648846,8.213090897462425,-23.730543839948783,-78.70503913494566
-5.435688424285713,-76.09963794,5.4921693839362575,-0.5576684641964279,5.9967157,0.33309999999999995,227,14,321.84390195959236,1064.4863999999998,mp-22605,Cr2CdSe4,https://materialsproject.org/materials/mp-22605,5.483065889202623,26.216256162509733,-19.311671428174183,-76.0853163336926
-3.0490237566666667,-18.29414254,6.701442960689089,0.126815998333333,0.00012425,0.0,118,6,153.0979725105087,617.8580000000002,mp-1077536,ZnSb2,https://materialsproject.org/materials/mp-1077536,31.965784447314302,-7.074821691965729,21.571184642358347,-40.83338588046777
-3.661165278,-18.30582639,5.6847172218436155,-0.786220458137931,3e-07,0.9322,71,5,181.46186660778844,621.2195999999999,mp-1070498,Rb2Te2Pt,https://materialsproject.org/materials/mp-1070498,-2.6943234902719695,5.017776447435833,-24.959878008344663,-75.29449867579014
-7.356366560416667,-176.55279745,3.318947390572258,-3.0194112181543065,3e-07,3.6244,8,24,272.14435045157467,543.939504,mp-1218394,Sr3Be2B5HO13,https://materialsproject.org/materials/mp-1218394,-18.97831721860822,-29.554568488018298,-12.36283402360133,-12.718276375635572
-4.6598059030000005,-46.59805903,4.641011395825252,-0.2376096432514885,3.0000002999999995,0.7765,5,10,248.87337486716632,695.571824,mp-1226281,CrAg(PSe3)2,https://materialsproject.org/materials/mp-1226281,7.5555795392534115,0.5912255703395619,-0.8161014956932191,-21.337470215020023
-6.14626289,-30.73131445,6.427418334902509,-0.4016405332413797,1e-07,0.0,139,5,125.27215354267629,484.88865189999996,mp-570837,Cs(AsRu)2,https://materialsproject.org/materials/mp-570837,15.141031017135322,23.095001616092272,23.024003303423203,-47.17380384486138
-6.304794703000001,-126.09589406,3.8023406006371916,-2.179828517437501,0.0,1.1848000000000003,62,20,480.45458836173117,1100.156,mp-5193,SrZrS3,https://materialsproject.org/materials/mp-5193,10.025892818033023,-8.135180084100242,-7.9963793718053875,-12.486889172374356
-2.9288450275,-70.29228066,3.8582008069929454,-1.3040478853927204,8.75e-07,2.6678,62,24,892.6603583683365,2074.0632,mp-567714,Rb2AgBr3,https://materialsproject.org/materials/mp-567714,9.898030127352039,-21.844327520877,-22.286328064853244,-30.825227305658288
-6.537740558333333,-313.81154680000003,3.6851286567771946,-3.5274339146625,0.0,5.424600000000001,14,48,643.8655331471556,1428.8898184,mp-555467,Sr2AlCO3F5,https://materialsproject.org/materials/mp-555467,-14.871333078577035,-25.712728174171573,-16.44799388329144,-16.835553669222673
-7.628392638333334,-45.77035583,6.2411595532813715,-4.151510378313334,0.0,4.4364,166,6,93.60371895441082,351.81090639999996,mp-769173,PrOF,https://materialsproject.org/materials/mp-769173,-23.936235148841792,-66.74247204338012,-16.131344186996042,-67.8816791460965
-3.586916715,-14.34766686,5.46322531089815,-0.5358176109050001,0.0,0.11230000000000027,156,4,99.32061932499224,326.76794,mp-1018094,BaGaSnH,https://materialsproject.org/materials/mp-1018094,9.724877173099802,-33.1898861765645,20.918861767713924,-39.78622106366272
-5.1506988995,-103.01397799,4.422625673958987,-1.7135528224375007,6.8e-06,0.7393000000000001,38,20,448.9286627477962,1195.6619999999998,mp-1227740,Ca3Er2(SnS4)3,https://materialsproject.org/materials/mp-1227740,-3.5630433373469708,1.9083999834791368,-9.7626430989997,-16.34534993090633
-3.438380601111111,-123.78170164,3.8248413641219785,-0.9083594355694444,1.65e-06,1.1676,2,36,987.301851968454,2274.12476992,mp-541689,Na7In3Se8,https://materialsproject.org/materials/mp-541689,11.417253458424312,2.297722146994136,-32.556177285468465,-34.997001757902325
-5.175163231666667,-31.05097939,3.6410847496387455,-0.233955406781608,3.3617453999999998,0.0,129,6,196.40280487370057,430.65489,mp-1179693,RbMnAs,https://materialsproject.org/materials/mp-1179693,-8.653226414907259,-0.8311177524868656,17.13475047513348,-48.00006136065501