energy_per_atom,energy,density,formation_energy_per_atom,total_magnetization,band_gap,sgr,num_sites,cell_volume,weight,mp_id,formula,URL,tsne_cry_0,tsne_cry_1,tsne_xrd_0,tsne_xrd_1
-3.7400741414285714,-104.72207596,4.873633891176039,-0.6605512974060959,0.0,1.5473000000000003,82,28,763.6702959137996,2241.3501556999995,mp-1226259,Cs3Ag9(SbS3)4,https://materialsproject.org/materials/mp-1226259,-1.4203068539082155,-3.653673873340614,-7.16968698292984,-23.110891940687107
-3.745599896428572,-104.87679709999999,4.737493106912715,-0.653097507849446,0.0,1.5892,82,28,735.7336756704448,2099.0372,mp-1219697,Rb3Ag9(SbS3)4,https://materialsproject.org/materials/mp-1219697,-2.2016443633687746,-3.1683819127057427,-6.946910407368288,-23.153364981680607
-6.034649687142857,-42.24254781,6.477786954208715,-0.2682532499999998,8.007017900000001,0.0,12,7,170.2836766327099,664.2791,mp-1025278,V2CrTe4,https://materialsproject.org/materials/mp-1025278,20.049701043669923,9.364766483866584,26.98618094628773,-40.24258098122204
-3.5888747390909086,-118.43286639,4.733419138590706,-0.0971252472133712,8.0000006,0.0,148,33,1019.4832847796628,2906.0693999999994,mp-1226983,In12Se19N2,https://materialsproject.org/materials/mp-1226983,15.315946478523335,12.431203070265813,-10.53870270944951,-14.938237719920599
-5.198497548000001,-103.96995096,4.098223152944195,-1.5434270316874998,1.006156,0.10050000000000026,146,20,520.8857650476376,1285.550084,mp-504921,Sc7CBr12,https://materialsproject.org/materials/mp-504921,19.71268897859955,9.922048121525233,8.265654034047758,-53.53768585279338
-3.2894878165000003,-65.78975633,4.874467226704828,-0.4640192341000002,9.75e-06,0.5440999999999998,62,20,648.150043775676,1902.62684,mp-1247740,KFeI3,https://materialsproject.org/materials/mp-1247740,-2.0971006901021414,13.567067339246716,-30.88235031940389,-38.884725018364655
-3.6942072780303032,-243.81768035,4.643246550935019,-0.617132808311553,0.0,0.8491,148,66,2114.457115533946,5912.5052,mp-21836,K2In12Se19,https://materialsproject.org/materials/mp-21836,15.312500968212236,12.58272425827662,-10.538925727718686,-14.923565866144347
-3.395676368333333,-40.74811642,4.663169220122578,-0.17687623619791695,1.125e-06,1.2465000000000002,14,12,399.94794022157885,1123.14428,mp-505373,AsSeI,https://materialsproject.org/materials/mp-505373,-0.3033348399928916,-1.2331771748519158,-30.825324754995346,-32.875629710250635
-3.4826358120000003,-17.41317906,4.830612210258502,-0.7834283821379315,9.000000000000001e-07,0.5736000000000003,71,5,183.06776165816476,532.5555999999998,mp-1070356,Rb2Te2Pd,https://materialsproject.org/materials/mp-1070356,-1.9177716047755569,13.12684594007404,-25.118740973986963,-75.06316310032993
-3.8130449228571432,-53.38262892,4.731767874318333,-0.4945845578171187,0.0,1.0967000000000002,2,14,452.5842198595035,1289.6556,mp-9798,Rb(SbSe2)2,https://materialsproject.org/materials/mp-9798,-0.2795452303123754,-1.4940697702445982,-19.66824357630538,-31.15691892169267
-3.815080192,-114.45240576,4.909655757668007,-0.5648751478229168,9.000000000000001e-07,1.7506999999999997,169,30,855.1956275340469,2528.526,mp-504952,InGaSe3,https://materialsproject.org/materials/mp-504952,15.159087322616186,12.686726681533836,-9.899105875526756,-15.245035432724213
-3.6484550685714288,-51.07837096,5.8085764661444985,-0.5025810582440481,6.54e-05,0.9297999999999996,12,14,403.13054681866,1410.1533,mp-1216779,TlIn5Se8,https://materialsproject.org/materials/mp-1216779,16.215919013081063,2.308329803429558,-2.446742946718393,-18.114058653961308
-2.83316648875,-22.66533191,4.637018439365378,-1.0876431919683909,0.0,2.0607,63,8,286.90050746430785,801.1633038,mp-23454,CsAgBr2,https://materialsproject.org/materials/mp-23454,2.559370637671597,-4.054096334302454,-7.5096533534456915,-14.970120972361498
-5.945825175714285,-41.62077623,6.317572082445719,-0.5171653061904757,4.0147406000000005,0.0,8,7,172.98587339996425,658.1301,mp-1217137,Ti2CrTe4,https://materialsproject.org/materials/mp-1217137,20.13202396348164,9.476866984326096,26.95459528597273,-40.13438630869497
-3.5143409805,-210.86045883,5.776918811870828,-0.22427897996666676,0.0,0.07929999999999993,74,60,1642.9713386829746,5715.801799999998,mp-569136,K3Cu11Te16,https://materialsproject.org/materials/mp-569136,15.875398290958385,12.061024210712006,-11.75999415186575,-12.754234915864561
-2.6094859955,-52.18971991,4.334863181242413,-1.2458237625689654,0.000266325,2.7539999999999996,62,20,670.5047671069246,1750.3632,mp-27400,RbCdBr3,https://materialsproject.org/materials/mp-27400,16.23883886814156,2.355329252518223,-1.85490392454632,-18.134185604989053
-3.37540833375,-135.01633335,4.778419933478569,-0.08846556975000013,2.9993646875,0.17159999999999975,14,40,1683.6563501106039,4844.94304,mp-1203591,TcI4,https://materialsproject.org/materials/mp-1203591,1.1471644157760963,-0.26408403275140946,-32.188478636692984,-31.946886932039266
-2.4920046220833334,-179.42433279,5.159376865208169,-0.5095973720833334,3.25e-07,0.9601,205,72,2160.7617669240253,6713.5936,mp-1203526,Cd4As2Br3,https://materialsproject.org/materials/mp-1203526,16.704473188176248,10.749862608841227,-8.809009354443345,-14.886197335974147
-6.88473355375,-165.23360529,3.3999804903727595,-2.8848154749404764,1.000000025,0.0,2,24,356.70802915052116,730.365448,mp-1192241,SrPO4,https://materialsproject.org/materials/mp-1192241,-21.268252942052776,-31.340469508208987,-29.48740149938473,-36.202405468257936
-3.605561200833333,-43.26673441,6.395161611882495,-0.3256890941666661,0.0,0.0,131,12,374.864129664982,1443.6978800000002,mp-29748,TePdI,https://materialsproject.org/materials/mp-29748,19.78646651127964,5.915582120299415,9.403100138012684,1.1288345443523164
-3.9946535690909086,-87.88237852,4.234307174663798,-0.7508376048390152,7.425e-05,1.4957,9,22,584.6081258095371,1490.727,mp-1191817,Li2In2SiSe6,https://materialsproject.org/materials/mp-1191817,-3.6389985825799354,0.8344682355197574,-31.63862934783064,-35.657552220587654
-4.223170935333333,-126.69512806,3.803881695367005,-1.2106057214022987,4.9999948000000005,1.2465000000000002,185,30,995.6153823479036,2280.70707,mp-568231,RbMnBr3,https://materialsproject.org/materials/mp-568231,-1.651269403468372,13.110115153585275,8.096297930008447,-54.06458087387823
-5.628117488571428,-78.79364484,6.011691886214162,-0.3268153175862066,15.0008188,0.0,12,14,390.4858661856384,1413.6859519000002,mp-866025,CsCr5Te8,https://materialsproject.org/materials/mp-866025,20.402321268833283,9.628794026090274,27.26344028220737,-40.48414813550076
-3.794281501818182,-83.47419304,4.871488224587996,-0.5495947613984132,0.0,0.8199000000000001,2,22,703.0237216048648,2062.4458075999996,mp-1192085,Cs2Cu2Sb2Se5,https://materialsproject.org/materials/mp-1192085,-5.418618129889117,-2.2299383482217205,-29.627046805929265,-37.447349369028245
-5.765663026923077,-74.95361935,6.514953593451524,-0.3398670469230773,9.002194300000001,0.0,12,13,325.1028528724637,1275.5075,mp-1207855,V5Te8,https://materialsproject.org/materials/mp-1207855,19.483720561167463,10.122731956411892,26.830112940557328,-40.437321413364096
-4.247374809,-42.47374809,4.341900730072196,-0.5822547761904765,0.00462545,0.4033999999999995,194,10,253.68470764587897,663.3230480000001,mp-1079772,Ca(InP)2,https://materialsproject.org/materials/mp-1079772,17.110424803949023,10.285475695832918,-8.425055975674804,-14.920429270108722
-4.137665945740742,-223.43396107,5.761765754712268,-0.04811780740740748,2.585e-05,1.1349999999999998,218,54,1368.843500590025,4749.63576,mp-1212622,Ge19(SbI)4,https://materialsproject.org/materials/mp-1212622,18.813483588197556,23.587819891636773,16.639579639294332,-46.218340624444636
-4.182344091777778,-188.20548413,4.856502798037901,-0.8790577390509258,0.0,0.6371000000000002,8,45,1037.6241402376213,3034.692,mp-1224719,In14Sn5S26,https://materialsproject.org/materials/mp-1224719,10.84568377322502,-3.898376426484541,-6.482653558034161,-18.901416699188967
-3.094113964375,-49.50582343,5.4588388262653424,-0.11831852187500005,0.0,0.8370000000000002,14,16,542.2545176228493,1782.6018800000002,mp-31037,CuTe2I,https://materialsproject.org/materials/mp-31037,-1.1975705998308837,-1.6292701416247757,-12.80513992798004,-13.640941455935677
-3.3652142045454543,-74.0347125,4.8432666762939105,-0.7158107984517046,0.0004136,1.0703,9,22,586.5285178978512,1710.7179999999996,mp-1226966,Cd4Ge(SeS)3,https://materialsproject.org/materials/mp-1226966,16.140763725576367,12.014942180963617,-10.135208974883213,-15.142458149724515
-4.0036228385,-240.21737031,5.347866231255201,-0.5997405107777779,0.00023765,0.2179000000000002,213,60,1296.8212718717675,4176.4912,mp-1195808,Ag4Sn3S8,https://materialsproject.org/materials/mp-1195808,11.682805019163304,-2.9795454181096916,8.494168729019407,-53.47924724007783
-3.5796726860000003,-71.59345372,5.893922307312951,-0.36683386295833387,0.0,0.5924,36,20,444.78521731686,1578.7220000000002,mp-4004,Ag5SbS4,https://materialsproject.org/materials/mp-4004,15.4868973619983,-14.64228673634984,3.946531786039488,-21.811658316995235
-3.603868222,-72.07736444,4.532820734030507,-0.958914497277,0.0,1.6366000000000005,62,20,489.06548859995576,1335.016,mp-557049,CdSbS2Cl,https://materialsproject.org/materials/mp-557049,0.4783848240920681,-2.0511894964766944,-7.3611958102255635,-18.896293723977664
-3.4573355730000004,-34.57335573,4.242273278836092,-0.4381633644827591,0.0,0.7657999999999996,72,10,418.3287580087063,1068.7282076,mp-8934,Cs2SnAs2,https://materialsproject.org/materials/mp-8934,-5.715330699673553,-3.935393583281594,-27.42906498751807,-46.53642587865786
-5.929005745714287,-41.50304022,6.417216977147398,-0.5799885219047626,2.5960925,0.0,8,7,170.02690167140625,657.0754999999998,mp-1217132,Ti2VTe4,https://materialsproject.org/materials/mp-1217132,19.877299024430698,9.493562821406679,26.931750216497324,-40.25764649203883
-5.19534346875,-41.56274775,6.7036324039515724,-1.6244986024479169,1.5e-07,0.8084999999999996,141,8,171.89166272953355,693.9304,mp-1173065,LuAgS2,https://materialsproject.org/materials/mp-1173065,18.7356098269857,9.694909088589913,28.531501894128265,-41.024484680719965
-4.037531146944445,-145.35112129,4.402145631936314,-1.04685678970139,0.001055275,1.2330999999999994,55,36,796.3213566805244,2111.07507712,mp-1195769,NaIn3S5,https://materialsproject.org/materials/mp-1195769,14.35549386108584,10.508953552283677,-7.3057545732206615,-17.03587155973959
-3.746416898571429,-26.22491829,4.787353624482945,-0.7369812872916671,0.0,0.2756000000000003,166,7,197.63394747185143,569.781,mp-1222200,Mg(InSe2)2,https://materialsproject.org/materials/mp-1222200,15.482040811043605,13.121726933273205,-8.364739247824849,-14.83437532620532
-3.493916678333333,-20.96350007,5.491634181162118,-0.090444063333333,0.0,0.14270000000000005,98,6,158.59881526624653,524.5083999999998,mp-471,CdAs2,https://materialsproject.org/materials/mp-471,19.95504304707982,22.77447360807085,24.074970685842942,-40.95218343306032
-4.747938016,-94.95876032,3.823436008870501,-1.0668639661562502,0.000467025,0.0,12,20,531.834648141404,1224.5636479999996,mp-1232150,MgScSe3,https://materialsproject.org/materials/mp-1232150,-2.040954290394289,-3.3260623437418206,4.256233563381638,-21.124987841654168
-4.2277964925,-84.55592985,3.699734003234029,-1.1964709080999996,5.000000125,1.7885,62,20,599.180542085941,1334.9933800000001,mp-29636,KMnBr3,https://materialsproject.org/materials/mp-29636,-2.2373104160051747,13.52339436775708,-1.8363980794057542,-22.98875689502687
-3.20504118,-51.28065888,5.224530141429131,-0.20175685249999956,0.0,0.7424,14,16,506.8198443697153,1594.6,mp-31036,CuTe2Br,https://materialsproject.org/materials/mp-31036,-1.251340301371561,-1.674605573533117,-32.23690388533002,-35.42612303976539
-2.868875226875,-45.90200363,5.327639008852106,-0.10511640140086208,5e-08,0.0,166,16,387.0904294367352,1241.9329037999998,mp-30574,CsGa7,https://materialsproject.org/materials/mp-30574,17.799119001970908,11.047225682281539,24.65548633724465,-41.64878957472963
-3.948348649791667,-189.52073519,4.2838311863616365,-0.9428054644062502,0.016242066666666666,1.1738,6,48,1278.4146123894654,3298.0329,mp-1224365,KIn7S8,https://materialsproject.org/materials/mp-1224365,0.16294212617250228,-2.0758713740101493,-7.398818445376357,-18.890939257034468
-3.7021722235000003,-74.04344447,4.854423570208817,-0.4642969975,1.25e-07,0.4775999999999998,36,20,821.6785896614418,2402.0970399999997,mp-570044,NbI4,https://materialsproject.org/materials/mp-570044,1.2432482635377358,-0.24650841320459604,-19.716691515525245,-15.512885312489386
-6.063457472857142,-42.44420231,6.416484992846428,-0.21741838999999988,9.0019394,0.0,8,7,172.18345943446832,665.3336999999998,mp-1216600,V(CrTe2)2,https://materialsproject.org/materials/mp-1216600,20.39827056988884,9.486715200871783,26.977772071821853,-40.143256754378974
-3.34588235375,-80.30117649,4.492912572321392,-0.3786817389810828,0.0,1.1648000000000005,19,24,752.7470099817098,2036.704,mp-18585,RbAgSe4,https://materialsproject.org/materials/mp-18585,-5.449845029907502,-2.3940574281641367,-30.48034690400269,-38.4144420455072
-3.9929220911538463,-103.81597437,5.275100051980738,-0.886985890777244,0.0,0.7322999999999995,11,26,631.4199086500713,2005.8566,mp-562480,TlIn5S7,https://materialsproject.org/materials/mp-562480,0.03638373782339378,-3.1556371082205583,-7.058689909110721,-18.980679066256766
-6.7492049925,-26.99681997,3.4363844469019216,-2.0498341095312504,0.9555483,0.0,129,4,166.40354236500255,344.36199999999997,mp-20560,CeS,https://materialsproject.org/materials/mp-20560,18.904152906636387,8.679930998434214,23.227538853297858,-40.177288659451754
-4.2540571966666665,-12.76217159,5.0956471171031525,-0.6089752522222222,0.1091021,0.0,164,3,98.30835304849012,301.67593999999997,mp-1207060,TiI2,https://materialsproject.org/materials/mp-1207060,19.454347924660663,8.883013982549231,28.443011012888093,-39.4666192785594
-4.859059097777777,-43.73153188,3.1422152760221813,-1.5038075172365903,0.0,0.8885000000000001,81,9,220.83312657180952,417.8795,mp-552966,Rb4CO4,https://materialsproject.org/materials/mp-552966,-7.598268474212028,-15.57632040079318,-30.179701768119003,-17.645961133736495
-3.4774425443478263,-159.96235704,5.363265270447826,-0.3556059409565222,0.0,0.0,12,46,1280.7848757160066,4136.7224,mp-28743,K4Cu8Te11,https://materialsproject.org/materials/mp-28743,15.766894754953544,12.103048574982646,-10.649014483893627,-14.777682293611946
-3.801336034117647,-129.24542516,4.670440506298736,-0.5820186244684966,8.7e-05,0.23649999999999996,12,34,1221.7544369171267,3436.3127114,mp-1226687,Cs3Sb5Se9,https://materialsproject.org/materials/mp-1226687,0.7505054110998611,-2.34504644061731,-21.380191080643147,-31.12422514210042
-5.5417562175,-44.33404974,6.454580836214991,0.0360171862500005,10.911465699999999,0.0,164,8,204.26556005864185,793.9883,mp-1226350,Cr3Te5,https://materialsproject.org/materials/mp-1226350,19.937156685225574,9.594612211793804,27.09985820190679,-40.30067974718817
-3.26314263625,-26.10514109,5.6157187086587514,-0.2871137262499999,0.0,1.0392,12,8,286.0072315584517,967.2378199999999,mp-1206891,RhI3,https://materialsproject.org/materials/mp-1206891,-0.4685250810894819,4.6647098275574015,-25.28255777095397,-75.33963468731206
-4.552559949545454,-100.15631889,5.577518581991608,-0.5420829204545451,0.0,0.5116000000000005,186,22,770.8867484938562,2589.3008600000007,mp-29689,Nb3TeI7,https://materialsproject.org/materials/mp-29689,17.427634650134458,2.394466706478648,-1.3879330389673208,-16.737626486736158
-3.9073171375,-15.62926855,5.0939422612001835,0.030407562499999763,7.785e-05,0.0,63,4,96.9744528108465,297.48307719999997,mp-1023918,AlSb,https://materialsproject.org/materials/mp-1023918,19.074235444699934,8.544504048670607,23.197998426344995,-40.13640185010403
-4.3751079081818185,-96.25237398,5.5986485243168005,-0.5122086872727271,1.0,0.0569999999999995,166,22,767.5647499988387,2587.9098,mp-27772,Nb3I8,https://materialsproject.org/materials/mp-27772,17.33580630221724,2.3554951146929093,-1.4210970801785028,-16.776003358093124
-4.216877273148149,-227.71137275,5.270960389626249,-0.04371243555555564,0.00029075,0.0,223,54,1388.3202931527178,4406.87096,mp-1212552,Ge12As11I4,https://materialsproject.org/materials/mp-1212552,18.745914809788523,23.563931163442305,16.711712667368733,-46.2250388615133
-3.7183431105555553,-267.72070396,5.311679744591326,-0.43076786641203707,2.75e-07,0.6203000000000003,205,72,2120.19603579679,6782.016,mp-530545,In4GeSe4,https://materialsproject.org/materials/mp-530545,15.57922378223384,12.866085329472742,-9.150521470743255,-14.772471021525359
-4.550642437272726,-50.05706681,5.7275487644880965,-0.5401654081818182,0.0,0.4779999999999998,156,11,375.34688408016183,1294.65043,mp-567713,Nb3TeI7,https://materialsproject.org/materials/mp-567713,17.42344950390585,2.4004648605590164,-1.3165107484961884,-16.698966712157446
-3.7205190792857135,-52.08726711,4.9568969163779215,-0.8127104172172628,0.0,0.6920000000000002,166,14,344.1097037346196,1027.2064,mp-1224043,In2AgS3Br,https://materialsproject.org/materials/mp-1224043,17.015322921228602,10.260788711263707,-7.894273039408972,-15.125619608832677
-2.782457963333333,-33.38949556,6.75286374419596,-0.13742596333333346,2.0675e-05,1.0294999999999996,14,12,444.06954683971634,1805.884156,mp-27741,TeAuI,https://materialsproject.org/materials/mp-27741,-2.8530820480602013,2.444050374354778,-1.1330029033526337,-19.993774676559024
-5.478383379875,-438.27067039,4.16795843582768,-1.284878080875,0.000432125,0.5493000000000006,134,80,2024.5030059842475,5081.5091840000005,mp-1204900,Sc4FeBr5,https://materialsproject.org/materials/mp-1204900,19.465709489909198,9.505856399923486,20.942775743355085,-34.57961043246329
-3.562751135,-78.38052497,5.437036611505216,-0.6117838879904928,5e-08,1.0406,11,22,613.4778484005873,2008.6860000000001,mp-568603,In5Se5Cl,https://materialsproject.org/materials/mp-568603,16.342023215024902,2.403758932668876,-2.3736748857236702,-17.58430172044578
-4.009781212857143,-28.06846849,4.257187587767377,-0.8142185899107142,0.0,1.9965,82,7,188.09020845804642,482.2140772,mp-3159,Al2CdSe4,https://materialsproject.org/materials/mp-3159,13.799797954833092,14.504930591185355,-16.507303086137842,-72.6610556649583
-5.7595409565,-115.19081913,6.272048865429532,-0.7152409371666664,0.34542059999999997,0.0,2,20,506.77180998840385,1914.136,mp-1217210,Ti2Te3,https://materialsproject.org/materials/mp-1217210,19.895059043097014,9.68003969354019,27.044475793668926,-40.33149410727078
-5.535596226666668,-99.64073208,4.339976759005797,-0.7326489451987549,14.9999994,0.4415,72,18,571.2170399762542,1492.9300775999998,mp-3704,Cs2Mn3Se4,https://materialsproject.org/materials/mp-3704,-1.435703646993478,-4.006592766989462,-19.283919009459968,-65.23692925282305
-3.709664875,-118.709276,4.464117711869574,-0.7092311008485992,0.0,1.127,14,32,1227.7709405275805,3300.6836152,mp-2969,CsSbSe2,https://materialsproject.org/materials/mp-2969,-0.4777290398898714,-4.140023722339737,-21.38393555947908,-31.213805326228343
-5.674954361363636,-124.84899595,2.498208659640352,-1.823295318978701,0.0,5.4159000000000015,15,22,289.2697689362496,435.193768,mp-24297,SrP2(HO)4,https://materialsproject.org/materials/mp-24297,1.488478284688972,0.6161291879432009,-19.436461022246576,-17.038000341512653
-5.78181365625,-46.25450925,5.1334286745597755,-1.4373954459374998,0.0,0.8338999999999999,5,8,234.65874024024305,725.42944,mp-549720,NbI2O,https://materialsproject.org/materials/mp-549720,12.83613398443155,0.5357124967675637,-2.1728073446687506,-15.920323899261213
-5.627770765714287,-78.78879072,5.8394912417295615,-0.31781556502463004,15.0046892,0.0,12,14,388.51135254236254,1366.2483,mp-975531,RbCr5Te8,https://materialsproject.org/materials/mp-975531,20.43091969276527,9.68388027676565,27.23549728866119,-40.51560239541686