energy_per_atom,energy,density,formation_energy_per_atom,total_magnetization,band_gap,sgr,num_sites,cell_volume,weight,mp_id,formula,URL,tsne_cry_0,tsne_cry_1,tsne_xrd_0,tsne_xrd_1
-6.451450328333332,-77.41740394,6.192565961326488,-2.174542654036459,4.9999239,0.5606999999999998,8,12,256.11846078317296,955.129885,mp-1216628,Tm4MnS7,https://materialsproject.org/materials/mp-1216628,11.672968455963805,-2.5654273359771587,-5.540580976513673,-17.423548297483453
-5.129870566999999,-51.29870567,4.516465729857913,-0.7609811006250006,5.00000055,0.6891000000000007,12,10,235.84285322067163,641.4640899999998,mp-554061,MnSbS2Br,https://materialsproject.org/materials/mp-554061,-2.5624488996053083,13.955835857369982,-2.7484408406983016,-22.2446882276884
-6.633411209166668,-79.60093451,5.2254504544944265,-2.405716579036459,3.11e-05,0.0,12,12,254.81653260869683,801.8668240000001,mp-1095468,Dy3Sc2S7,https://materialsproject.org/materials/mp-1095468,11.729623277905178,-2.181830621295546,-5.692403592655499,-17.403482103196062
-4.612976111071427,-129.16333111,3.2957675317618738,-1.4884530855357152,0.007431875,0.0,62,28,659.2764674863453,1308.504,mp-866496,Ca2SnS4,https://materialsproject.org/materials/mp-866496,9.286052871019814,1.4500717052273797,-3.6147165839117497,-18.49760930289343
-3.2161969016666667,-38.59436282,2.2688988285016602,-1.098436240698276,2.1000000000000002e-06,0.001999999999999988,139,12,411.5027034171687,562.2620000000002,mp-756889,KRbO,https://materialsproject.org/materials/mp-756889,-2.3121196139861624,-7.52821138133825,-29.268613140312176,-32.95131466394001
-4.424840823333334,-79.64713482,3.4766597561685417,-0.6183637074288895,3.99999995,0.0,173,18,299.5619592471354,627.19092,mp-865922,FeH4Br3N,https://materialsproject.org/materials/mp-865922,-3.156447495105734,5.046381304133684,-23.37296330917284,-72.76485871942701
-4.122728287749999,-164.90913151,4.365749093605008,-0.9433338315208346,0.0,0.8348999999999998,141,40,991.4543128184488,2606.6479999999997,mp-22216,In2S3,https://materialsproject.org/materials/mp-22216,10.638494567034952,13.035605363036954,-20.88587924691499,-76.1698010693716
-8.29216027,-49.75296162,5.31341280093491,-2.1660001683333334,0.0,3.0102,12,6,104.32835947550844,333.83114,mp-27311,LaCO,https://materialsproject.org/materials/mp-27311,-10.451599503075961,-59.59342569041939,-24.027112866736,-69.01293593200239
-5.90718763375,-47.25750107,5.728012605770079,-1.9840081789732151,0.0,1.1665,166,8,146.85638814292201,506.579624,mp-13206,PrZnPO,https://materialsproject.org/materials/mp-13206,18.658489014596807,-38.72286920146888,18.54731458509305,-39.88678054005156
-2.813368913333333,-50.64064044,5.457827950074806,0.28948249583333346,1.3430757,0.0,128,18,542.4308192953997,1782.85124,mp-1188960,Tc(I3O)2,https://materialsproject.org/materials/mp-1188960,2.1695159883695347,-0.4732107707819611,-23.679460018264926,-32.83977932509004
-7.4025944559615375,-384.93491171,4.321132698975009,-3.170608976391027,0.0,4.2027,14,52,752.619323388176,1958.50136,mp-1019777,K2La2B2O7,https://materialsproject.org/materials/mp-1019777,-17.94566767321692,-31.637964164635466,-18.42063928646732,-32.86771385406564
-7.058156144761906,-296.44255808,3.9264424994178224,-3.2680110338180284,1.00000065,0.3800000000000001,176,42,625.0751130426312,1478.026972,mp-1208610,Sr5P3O13,https://materialsproject.org/materials/mp-1208610,-20.061817133716584,-32.505961588697055,-10.067161673157806,-33.69419891104397
-4.540294495,-72.64471192,4.141827849510752,-0.9236850789664156,1.31e-05,1.8007,70,16,551.304379289395,1375.10036,mp-9764,Rb2NbAgSe4,https://materialsproject.org/materials/mp-9764,-5.722545339488316,-1.4519848787699403,-35.080644054203034,-47.45633337688322
-7.59355345,-136.6839621,5.3478192465135725,-3.2962098112847227,0.0,4.726399999999999,15,18,252.0529714109301,811.74468,mp-4078,La2SO6,https://materialsproject.org/materials/mp-4078,-11.575970376788392,-59.14341762613317,-19.828187851370853,-55.632771169843615
-2.274843489736842,-86.44405261,3.9847854470897848,-0.14323951182395653,0.8959239,0.0,167,38,1525.3583766398351,3660.3932304,mp-1200207,Cs8Ga11,https://materialsproject.org/materials/mp-1200207,2.268665449246856,-3.724748770044785,-18.396561955226737,-13.398117568665846
-5.699255236666668,-34.19553142,4.551632816318857,-2.6040283341075003,0.0,2.9329,59,6,171.30396494037808,469.55400000000003,mp-27616,ErSCl,https://materialsproject.org/materials/mp-27616,13.288618680707435,7.048403091357441,-25.65078078257372,-77.60720315420701
-3.4708607575,-69.41721515,4.335395197477145,-0.5059224513229168,7.15e-06,0.0,12,20,576.0652786813549,1504.0120000000002,mp-1237970,MgInSe3,https://materialsproject.org/materials/mp-1237970,-4.806008695411776,-1.8818209099986336,-30.09417867196307,-37.932837824430464
-4.4396979575,-88.79395915,4.9199435735970525,-1.1095189616562506,2.985e-05,0.0,12,20,575.2758045432365,1704.46128,mp-1232140,HoMgSe3,https://materialsproject.org/materials/mp-1232140,-2.8156410683401907,1.5376677765682951,-11.582419628935325,-9.139195000806897
-4.575676981,-45.75676981,3.715975646741477,-0.06489463171428582,0.0,0.4893000000000001,14,10,211.19375119490016,472.612096,mp-7904,CdP4,https://materialsproject.org/materials/mp-7904,11.236793518455057,2.4282956802996116,-15.622535846382108,-16.783115153491995
-4.1621567015,-83.24313403,4.823098834454716,-0.5301934412187492,0.0,0.6281000000000003,15,20,760.9881907914418,2210.31916,mp-541817,NbSeI3,https://materialsproject.org/materials/mp-541817,12.797346158727212,0.4132160807579778,-15.053979428035346,-6.717723014644602
-6.503904289166666,-78.04685147,6.101951531643268,-2.153914226536458,3.8031614,0.0,8,12,254.7628864467679,936.1723800000001,mp-1224079,Ho4CrS7,https://materialsproject.org/materials/mp-1224079,11.683281968321722,-2.602361486030764,-5.666313044984946,-17.449926331683127
-4.2807030396551715,-124.14038815,4.200558092260688,-0.5648291752801732,0.0063199,0.0,1,29,757.6309662743962,1916.53,mp-753921,Sb11S18,https://materialsproject.org/materials/mp-753921,0.4435739160330369,-2.2734866221470527,-29.931946787406932,-35.32741453428853
-6.948713570625,-222.35883426,2.8457863595721697,-2.9145053694866085,1.00000385,0.5713999999999999,14,32,373.5873501498007,640.243776,mp-1200025,CaBePO5,https://materialsproject.org/materials/mp-1200025,-53.903645607819136,16.914954164182433,-8.518223353203647,-20.902289901301945
-3.62258599,-94.18723574,5.856982840815895,-0.4735363053966353,3.45e-06,0.019000000000000128,4,26,704.0388620533874,2483.256,mp-567596,In6Se7,https://materialsproject.org/materials/mp-567596,16.643930341077525,2.6216159060058644,13.216514943943295,4.782387239357671
-3.2513095153571427,-91.03666643,4.855886181513463,-0.6270469335591129,2.5e-08,0.6313,62,28,1224.123501188669,3579.6836151999996,mp-28877,Cs2SnTe4,https://materialsproject.org/materials/mp-28877,2.0759163848777646,-3.792602022879549,-19.25669564160319,-13.747196339865132
-4.304842653636364,-142.05980757,4.836074566323094,-0.8378644183996217,1.7e-06,0.4997000000000007,1,33,771.8238822251747,2247.823,mp-1224536,In6Sn8S19,https://materialsproject.org/materials/mp-1224536,11.1471285380067,-3.6267594919053083,-6.377810845251662,-18.964560106914607
-3.9703952155,-79.40790431,4.387248969703657,-0.2088024767514888,5.5e-07,0.6722999999999999,163,20,539.9558523181739,1426.597448,mp-7008,GaAg(PSe3)2,https://materialsproject.org/materials/mp-7008,7.465248453842197,0.8347965076613755,-0.4355894929299015,-21.047204589042682
-4.4623347980000005,-89.24669596,4.413697736190532,-1.0910318681562499,1.3875e-05,0.0,12,20,605.1076289590603,1608.3706,mp-1232136,PrMgSe3,https://materialsproject.org/materials/mp-1232136,11.889671687110829,2.0597690963800006,-11.628726055812526,-8.603410090572453
-4.55002373125,-72.80037970000001,4.326357604313603,-0.9636999191819321,1.85e-06,1.8644,70,16,600.6198195199441,1564.8509676,mp-14637,Cs2NbAgSe4,https://materialsproject.org/materials/mp-14637,-2.8733895708910744,-1.6038154075397852,-33.18112943445181,-46.97835374179165
-5.60097029125,-89.61552466,5.940442648120265,-1.7020851570312503,0.0,1.7457000000000005,19,16,329.7741335268151,1179.7399999999998,mp-559826,ErCuS2,https://materialsproject.org/materials/mp-559826,16.184160175552105,-12.991742244418454,-10.3139654734978,-16.66274977393104
-4.463741856,-89.27483712,4.495225867172035,-1.09615610265625,9.02e-05,0.0,12,20,599.0598748655183,1621.7079999999999,mp-1232282,NdMgSe3,https://materialsproject.org/materials/mp-1232282,11.853849957860634,2.040119812404336,-11.53098778280344,-8.80353925616733
-8.130825380462962,-878.12914109,5.667788698476827,-3.581457094340829,0.0,4.6935,14,108,1559.9358025384206,5324.407496,mp-554964,Pr7BP2O17,https://materialsproject.org/materials/mp-554964,-11.545418536239886,-59.118947155903044,-19.507432331229392,-57.6937963142953
-4.643190961666667,-27.85914577,3.9549904227033035,-1.4463354233333334,0.9924455,0.0,136,6,171.94401680837242,409.527824,mp-862565,ScBr2,https://materialsproject.org/materials/mp-862565,20.436612860186425,10.236020728526391,28.13831627232971,-40.5954989402016
-6.339555241481482,-171.16799152,5.1667159100499545,-2.8363771146759253,0.0,2.5962,160,27,544.3904298258514,1693.854,mp-756637,Ba3GeO5,https://materialsproject.org/materials/mp-756637,-7.084255617975263,-25.91691189882814,-26.802690253559327,-67.12497146138696
-5.900400419230769,-76.70520545,6.107725331469209,-0.20678434978365398,14.5193307,0.0,156,13,321.76443396756036,1183.5005,mp-1226038,Cr5(Te3Se)2,https://materialsproject.org/materials/mp-1226038,20.244498150411182,10.649775042576255,27.352553540593604,-40.72002721624645
-5.43014561875,-43.44116495,6.66945150657463,-1.8275781959375008,0.0,0.12950000000000014,129,8,171.3339434856864,688.1520999999998,mp-975646,PrZnSbO,https://materialsproject.org/materials/mp-975646,19.234947553117298,-38.409019279407346,20.05009906198755,-40.652198001616455
-6.771691163333332,-81.26029396,6.880514016625713,-2.283643403619792,3.1606717,0.0,8,12,270.8323134554827,1122.2051900000001,mp-1224008,Ho4US7,https://materialsproject.org/materials/mp-1224008,11.365713140314634,-2.8062319226045336,-5.14308490364178,-16.820769163884005
-3.6175157490625,-115.76050397,3.8736530387862063,-0.9072178786927084,3.75e-08,1.4657000000000002,15,32,1069.4119376296185,2494.6904,mp-505700,KInSe2,https://materialsproject.org/materials/mp-505700,-2.58090821779789,-0.5437855381364813,-11.052135075412574,-14.64985733994246
-4.032338086153846,-52.42039512,4.303303844510729,-0.8419811653205133,0.9950230999999999,0.0,216,13,320.511955894952,830.61,mp-1224137,In5S8,https://materialsproject.org/materials/mp-1224137,10.349205463768424,13.21512591664023,-20.975359096243526,-76.55122139734148
-5.800872103250001,-232.03488413,6.228892687228752,-2.0736166125208326,5.585e-05,1.0953999999999997,18,40,855.2085579190779,3207.99584,mp-1203491,Ho3InS6,https://materialsproject.org/materials/mp-1203491,13.236816973831393,-5.104159597228756,-3.6308967931867664,-15.49213844759675
-5.141807056111111,-92.55252701,4.338398946148374,-0.4661989184099621,14.99999915,0.2391000000000001,72,18,647.7341923109996,1692.29947,mp-1209522,Rb2Mn3Te4,https://materialsproject.org/materials/mp-1209522,2.550638092320296,-3.1573441978075785,-16.182313941101867,-14.271798944626866
-4.822646885,-19.29058754,6.48389135385543,-0.1350949616666668,3.0000595000000003,0.0,160,4,106.29889315625931,415.0643,mp-1018084,CrAgTe2,https://materialsproject.org/materials/mp-1018084,21.277061356914874,7.866054514097135,5.616781371394588,-7.705901407137962
-4.349841726875,-69.59746763,4.081238479026486,-0.8624740395914152,5e-08,1.0795,70,16,525.3403347092939,1291.1706,mp-14635,Rb2VAgSe4,https://materialsproject.org/materials/mp-14635,-5.667954599502612,-1.6028297375413147,-35.0146106038265,-47.22747816384214
-10.877836387,-217.55672774,6.5044710778946975,-3.013422514375,14.000000025,1.8184,14,20,402.9828203918318,1578.5176,mp-561849,Gd2S2O,https://materialsproject.org/materials/mp-561849,12.286796392749764,-3.5791370540574747,-6.9439629049438345,-20.322249700376886
-5.748797611500001,-229.95190446,6.465065198077783,-2.051507175270834,0.000206725,1.1369999999999996,18,40,836.3079960844859,3256.04252,mp-1203475,Tm3InS6,https://materialsproject.org/materials/mp-1203475,13.230146682033524,-4.252748879758274,-4.461283680514693,-17.094180482109433
-4.040640835416666,-193.9507601,4.677416977360164,-0.4393027378645833,1.6666666666666667e-08,1.5180000000000002,15,48,1051.9138309889968,2963.0376,mp-542609,AgAsS2,https://materialsproject.org/materials/mp-542609,-1.9467666002105417,-3.961178825556377,1.363218597385787,-34.62415563175005
-5.284330396875,-84.54928635,5.781488600290968,-1.2155662603385418,0.000568325,1.2779000000000005,19,16,407.49596375651055,1418.7761999999998,mp-1188559,YAgSe2,https://materialsproject.org/materials/mp-1188559,21.298228866869554,7.813449523680035,13.652847396083931,5.004267816503433
-5.0766481552272715,-223.37251883,5.55756097057922,-1.5716945283854165,0.00064965,0.0,55,44,986.3964458766884,3301.3125600000003,mp-1197008,Ho4In5S13,https://materialsproject.org/materials/mp-1197008,9.462402617448813,-4.469507355131032,-5.899359958433374,-13.189884957213426
-5.2502876485000005,-105.00575297,4.056544095643588,-0.9564309427770006,4.999999900000001,0.8711000000000002,62,20,452.3805982803794,1105.12418,mp-555844,MnSbS2Cl,https://materialsproject.org/materials/mp-555844,-0.2515435666968115,-2.8943128915276546,-29.100564829847045,-35.68439234377101
-3.3054094684375,-105.77310299,4.045834775578681,-0.6989511604375003,0.0,1.2481,15,32,1195.2471884225047,2912.1704,mp-17965,KGaTe2,https://materialsproject.org/materials/mp-17965,-2.3363836372501603,-1.1070722535582502,-17.216436094915792,-15.495179892279547
-6.4962346050000015,-77.95481526,6.211103006930211,-2.1497947390364587,3.8223142999999995,0.0,8,12,252.7760752984763,945.4870999999997,mp-1225666,Er4CrS7,https://materialsproject.org/materials/mp-1225666,11.702128708552955,-2.618780192857625,-5.574200454191729,-17.504607182158395
-3.63219678375,-29.05757427,5.078137367167329,-0.5115179097135418,0.0,0.4575,194,8,253.45981081454042,775.112,mp-20485,InSe,https://materialsproject.org/materials/mp-20485,15.313511355801973,12.984891242218973,-8.639136920987603,-14.70622063921299
-7.9645316261111105,-286.72313854,5.6602520996703705,-3.2375297069444438,0.0,2.7928,142,36,551.2360815530315,1878.9893600000003,mp-19300,La2MoO6,https://materialsproject.org/materials/mp-19300,-22.2913994906172,-66.91019170970607,-16.61512980630773,-71.09671781617203
-8.561166185,-51.36699711,6.202310273278347,-2.0990955175000003,0.23311220000000002,0.0,12,6,90.02450390002116,336.25220000000013,mp-1206355,CeCO,https://materialsproject.org/materials/mp-1206355,-10.550431814513386,-60.06037577671532,-9.057891080275745,-66.34153094359898
-5.214732300185187,-281.59554421,4.156472184054038,-3.321447027504074,12.0000646,0.3099000000000001,87,54,779.7328642318604,1951.7384915999996,mp-1208697,Sr5Co3F19,https://materialsproject.org/materials/mp-1208697,-14.703196878326173,-24.802442974186484,-15.37574890413569,-17.768007783620575
-6.394541507567568,-236.59803578,6.067859830846647,-2.488121208902028,0.0005367999999999999,0.0,12,37,859.4813408786972,3140.6743100000003,mp-1204447,Nd4(TmS2)11,https://materialsproject.org/materials/mp-1204447,9.265073721911499,-3.093930606020768,-5.481965507092288,-14.997612007930346
-7.095001895,-85.14002274,4.233060766059054,-2.4237694298697927,1.1949273999999999,0.0,8,12,282.5168320706058,720.1944000000002,mp-1226610,CeY4S7,https://materialsproject.org/materials/mp-1226610,17.119235657823968,5.308867086834581,-3.2106922737544297,-16.05000024265324
-4.413715736,-88.27431472,5.012409800334152,-1.1035134431562503,0.000189825,0.0,12,20,569.969151374131,1720.4768399999998,mp-1232151,TmMgSe3,https://materialsproject.org/materials/mp-1232151,-2.9056662207243784,1.54090707974083,-11.573888952382825,-9.118377736279346
-4.39572349,-35.16578792,3.48276909497955,-0.3143895862499999,0.0,1.3031999999999997,122,8,192.8447995807312,404.4674,mp-1016197,MgSiAs2,https://materialsproject.org/materials/mp-1016197,-0.16254158148401882,9.646036620707537,-16.5263656833772,-72.34464708080793
-5.733229943552632,-435.72547571,4.174414889567024,-4.125220883500264,0.0,6.4233,227,76,1146.092572208074,2881.1523144000007,mp-555507,Sr10Al2ClF25,https://materialsproject.org/materials/mp-555507,-14.32641889610385,-26.284495543970973,14.286807145677777,-46.9607707782635
-4.9134276844444456,-44.22084916,3.7453211832847946,-1.5581761039032571,0.0,1.7193,121,9,185.27255469104992,417.8795,mp-545760,Rb4CO4,https://materialsproject.org/materials/mp-545760,-0.5069629442392967,-32.82705901627179,-2.7838769018865444,-34.26975262585464
-4.096854283636364,-90.13079424,3.8716354436166034,0.048813907727272655,0.0,0.4959999999999996,167,22,450.42007764083604,1050.1784632000001,mp-1190320,Al6Ge5,https://materialsproject.org/materials/mp-1190320,16.491011259399677,23.654541890624614,13.924020544349064,-47.368881385224924
-5.019335505555556,-180.6960782,5.099232937880911,-0.38584832555555537,0.0,1.6573999999999995,64,36,1366.7273712974616,4196.987279999999,mp-1198690,MoI2,https://materialsproject.org/materials/mp-1198690,19.45073024512573,5.824279954689133,14.23108858422714,-9.92725197993839
-3.333136492903226,-103.32723128,5.223880040929721,-0.3539594950806456,1.9996838,0.35619999999999985,1,31,1040.2533113833001,3272.5268,mp-1217490,Te15W2(Br6O)2,https://materialsproject.org/materials/mp-1217490,13.130988344238956,0.2862439838632078,-32.66856434822093,-29.809465668878
-5.536618698928572,-310.05064714,4.52959341016866,-1.5041320252678574,0.000217275,0.7093999999999996,29,56,1261.2631307123315,3440.454592,mp-1232167,Mg(ScSe2)2,https://materialsproject.org/materials/mp-1232167,19.377828355404755,10.454353985531679,28.5274466958244,-29.869393185182656
-5.174049708,-51.74049708,5.944079106728059,0.18922238600000013,1.05e-05,0.07559999999999968,227,10,343.3644391147283,1229.11015,mp-1211676,La4Co,https://materialsproject.org/materials/mp-1211676,-9.994492817433452,-62.19123207330415,-8.3162995397856,-66.92709496431094
-8.364091962325581,-719.31190876,5.760311269895085,-3.697892165387597,0.9561552,0.0,14,86,1305.873913999225,4529.99902,mp-1196229,La13(B2O13)2,https://materialsproject.org/materials/mp-1196229,-10.816412098621496,-59.61738679241736,-16.52885753584976,-69.76129214939583
-4.0569485095,-81.13897019,4.70524562325814,-0.19617493241815467,0.0,0.3111000000000001,163,20,504.00924325528837,1428.1430480000001,mp-22449,InCu(PSe3)2,https://materialsproject.org/materials/mp-22449,7.00742583257511,0.8750272321770903,25.73871688019796,-45.744192412874774
-3.758364732,-37.58364732,4.3484724726784885,-0.6837075853976291,1e-07,1.1698,2,10,373.0807881797378,976.9909037999998,mp-613162,CsSnSe3,https://materialsproject.org/materials/mp-613162,-4.069678170452266,2.006984907173435,-29.355636453551764,-36.94282756168783
-5.254991935285713,-367.84943547,4.8489922256180975,-1.4319377444642865,21.055602399999998,0.0,1,70,1735.3534037819124,5067.459999999999,mp-686587,Yb9(Fe3S10)2,https://materialsproject.org/materials/mp-686587,12.295940903865194,6.39583976319129,-33.717006694575296,-30.163654392328223
-6.007806881666667,-72.09368258,5.811712214233503,-2.3307310907031265,0.0,1.1777000000000002,8,12,262.23529875125485,917.7959999999997,mp-1225593,Er4MgS7,https://materialsproject.org/materials/mp-1225593,11.623765828500545,-2.0920070449837387,-5.907808946823335,-17.278983211052196
-6.9673322010000005,-278.69328804,5.568882347427201,-2.660657801375001,0.0,3.2056000000000004,217,40,726.0780345623874,2435.018420000001,mp-1211710,La3Sb5O12,https://materialsproject.org/materials/mp-1211710,-19.765055506961804,-67.27792135884273,-16.360842552333597,-71.01315381048221