energy_per_atom,energy,density,formation_energy_per_atom,total_magnetization,band_gap,sgr,num_sites,cell_volume,weight,mp_id,formula,URL,tsne_cry_0,tsne_cry_1,tsne_xrd_0,tsne_xrd_1
-7.7123232425,-30.84929297,11.624325224734605,-0.16881942500000058,5.7700000000000007e-05,0.0,225,4,66.86630776884694,468.08638,mp-865857,YbNbRu2,https://materialsproject.org/materials/mp-865857,96.325676150574,8.964847138313239,62.247690531752774,64.17896670894861
-3.2349445,-12.939778,10.558477926838565,0.14661602070312485,4e-07,0.0,194,4,86.79032019058161,551.853138,mp-10678,AuSe,https://materialsproject.org/materials/mp-10678,52.83320691652976,40.28960400654893,74.53329610874431,16.104176093693205
-1.64870368375,-13.18962947,4.815453520365224,-0.19350986624999988,0.000171,0.0,194,8,162.97267793685992,472.61000000000007,mp-1039262,CaZn3,https://materialsproject.org/materials/mp-1039262,46.38344114275153,13.693941572191902,47.101281147568436,31.595062513889108
-7.766513512857142,-108.73118918,6.782128662668267,-0.002706535305713536,1.0620433999999999,0.0,11,14,134.05389982322546,547.51546,mp-1245959,Mn(CoN)3,https://materialsproject.org/materials/mp-1245959,26.812320360393766,53.80920008773371,69.53646223654242,-0.2396497111923336
-6.19084966,-24.76339864,4.743956718785462,-0.3069926124999993,7.59e-05,0.0,225,4,75.35738566795636,215.28682400000002,mp-866079,MgSc2Ru,https://materialsproject.org/materials/mp-866079,88.51900523359446,-1.9424071004356855,68.64136779499515,45.67132071723459
-4.6310574,-27.786344399999997,7.582269103730877,-0.482453689083334,1.3e-06,0.0,183,6,126.94936951309208,579.66976928,mp-1220866,NaSn2Pd3,https://materialsproject.org/materials/mp-1220866,52.37908199733122,17.808381033341515,70.60123197454301,14.722478083013664
-6.671298780769232,-86.72688415,5.501271965027435,-1.236406081442308,0.0007216,0.0,166,13,328.34849452911783,1087.8,mp-1215359,Zr5Se8,https://materialsproject.org/materials/mp-1215359,21.880459390356215,22.5654361335881,28.870623759275368,-42.34375919315392
-4.7312398475,-18.92495939,4.328150704574424,0.10773861353500004,2.3866222,0.0,221,4,21.108951922842135,55.01991999999999,mp-1183679,CrH3,https://materialsproject.org/materials/mp-1183679,33.38420740435379,51.223969757735354,58.4483078328241,-27.40095733962131
-8.5706466225,-34.28258649,11.335204737497694,0.07248419000000084,0.0046611000000000005,0.0,187,4,59.256807198021406,404.5,mp-1221430,MoPdRu2,https://materialsproject.org/materials/mp-1221430,65.45971371796165,62.974942027328936,89.91184506417757,15.676526157077785
-3.5428960941666667,-42.51475313,4.100621813390695,-0.2775366666666663,5e-08,0.0,141,12,193.35705171938915,477.4860000000001,mp-8490,LiGe,https://materialsproject.org/materials/mp-8490,46.444613219294816,37.942297075428115,4.899514950069563,-9.623964656817687
-5.7878488690625,-185.21116381,4.237125720210291,-1.852499905684999,15.9999995,0.4685000000000002,2,32,283.3458900884604,723.001465,mp-1175749,Li9Mn2Co5O16,https://materialsproject.org/materials/mp-1175749,19.159602202221905,89.71423055552714,10.201115922746206,89.70655351533051
-8.906572885000003,-53.43943731,13.031667994039395,-0.2147576116666675,0.6572944000000001,0.0,227,6,76.151842000741,597.6285399999998,mp-1799,TaCo2,https://materialsproject.org/materials/mp-1799,69.34758432066316,50.10662248710978,72.95508459337171,21.540550766138896
-5.791048650625,-185.31355682,4.23119824891705,-1.8556996872474996,15.9999997,0.4474999999999998,1,32,283.74282838601886,723.001465,mp-1175969,Li9Mn2Co5O16,https://materialsproject.org/materials/mp-1175969,19.22081787270436,89.98778383677252,10.108611261433195,89.21691937167505
-5.797127153125,-185.5080689,4.217496285308694,-1.8617781897475,20.000000699999998,0.7088999999999999,1,32,284.66466296408834,723.001465,mp-1176075,Li9Mn2Co5O16,https://materialsproject.org/materials/mp-1176075,12.006945255464625,88.96705826421731,6.907161307407169,94.02920810418102
-4.361984408333334,-26.17190645,9.522536226388906,-0.1995444716666667,5e-07,0.0,216,6,84.86446266660325,486.66420999999997,mp-30600,TmCu5,https://materialsproject.org/materials/mp-30600,67.2278238116577,49.01611478917672,73.70288823709592,23.113677640239924
-7.415476622000001,-37.07738311,8.00823504635962,-0.4390448566666663,1.1012239,0.0,139,5,61.33778187788991,295.812,mp-568725,Dy(FeB)2,https://materialsproject.org/materials/mp-568725,55.7416024759191,25.29214032102344,48.834394886417684,-1.827089811465714
-5.8259162075,-23.30366483,7.684726372609327,-0.6988810024999994,0.0016102999999999998,0.0,225,4,70.9549719257753,328.369,mp-864907,MgZrPd2,https://materialsproject.org/materials/mp-864907,93.65736687838607,0.3708151385611532,70.43424269481201,54.8479515719063
-5.6606760214285705,-39.62473215,9.966709765801331,-0.6141868271428572,2.7000000000000004e-06,0.0,123,7,113.10979333405734,678.8955000000002,mp-1077994,SiSnPd5,https://materialsproject.org/materials/mp-1077994,58.99665435185606,43.50233443316373,76.20909439597555,11.97577126109539
-5.773401434375,-184.7488459,4.233523597418559,-1.838052470997499,17.999973,0.20820000000000016,2,32,283.586976895973,723.001465,mp-1175717,Li9Mn2Co5O16,https://materialsproject.org/materials/mp-1175717,18.341428575945876,90.73528748315177,9.386050048803297,89.84354901682887
-5.761358774523809,-483.95413706,6.086405798857019,-1.2511206477380956,12.3661336,0.0,8,84,802.196706723466,2940.307075,mp-758061,Co25Cu11O48,https://materialsproject.org/materials/mp-758061,-7.005036011690263,57.33984108730333,13.738900481640098,53.43217390505861
-6.981046798,-139.62093596,3.970648645410435,-3.0392672582500007,0.0,5.414999999999999,62,20,167.93161058713292,401.5548,mp-3547,MgSiO3,https://materialsproject.org/materials/mp-3547,7.62327027004995,61.131817608755796,8.1902812916193,49.24531958633658
-5.385088562083332,-129.24212549,10.365995676208811,-0.5191417181944443,0.0,0.0,194,24,304.874133765402,1903.1916,mp-570788,Yb3Ni7B2,https://materialsproject.org/materials/mp-570788,76.64362478159694,29.130728693566912,68.4090851015169,24.52578263733964
-9.29622422,-37.18489688,11.088785852116176,-0.19158372999999784,3e-06,0.0,51,4,59.553989062798344,397.691,mp-12595,MoRh,https://materialsproject.org/materials/mp-12595,65.47124672582092,62.95617451840969,89.87521594969431,15.91860767254321
-6.693879726666666,-40.16327836,10.176259430364297,-0.33479217249999965,0.0019244,0.0,216,6,81.55363274183425,499.78404860000006,mp-16519,UAlNi4,https://materialsproject.org/materials/mp-16519,65.51838795433606,48.920540369722325,72.39898943851085,20.068096744723942
-4.891745240217392,-225.02028105,4.961005224634349,-1.2126695952173911,6.000000599999999,0.10309999999999996,4,46,428.650781720231,1280.6316,mp-849405,Li4Cu2Ni5O12,https://materialsproject.org/materials/mp-849405,19.503175481327343,53.462437325578136,27.312481704862858,75.84507312735361
-1.4028017341666663,-16.83362081,4.91872183650697,-0.019472197499999844,2.365e-05,0.0,12,12,209.47539305035875,620.4920000000002,mp-1094504,MgZn2,https://materialsproject.org/materials/mp-1094504,47.383680596157404,32.59044756049143,80.4756396082197,20.065101634078317
-3.30219259,-13.20877036,7.794049694598319,-0.5274514962499999,2.13e-05,0.0,216,4,70.21316148013564,329.558569,mp-30405,Li2SnAu,https://materialsproject.org/materials/mp-30405,85.87428268230894,2.01387363816096,57.4541828981879,70.1314092062033
-8.902296256666666,-106.82755508,13.024748857370934,-0.21048098333333345,0.129265225,0.0,194,12,152.3845922797341,1195.25708,mp-570430,TaCo2,https://materialsproject.org/materials/mp-570430,69.35169218810297,50.10654363919221,72.28871312872873,18.70925632539539
-7.046576012,-35.23288006,20.91694404415534,0.042225292999999914,0.0032733000000000003,0.0,166,5,77.05058303423506,970.566,mp-1220039,OsPt4,https://materialsproject.org/materials/mp-1220039,67.64147562853944,63.44667667693221,89.09655942427929,17.291700162618614
-5.01819606,-45.16376454,3.907854933398901,-1.5928445872222226,0.9984905000000001,0.0,12,9,90.04662439243731,211.9126,mp-545467,Li3(CuO2)2,https://materialsproject.org/materials/mp-545467,-26.864541522391963,59.00445588388054,-26.294775307968283,51.80063684486685
-8.687420640000001,-26.06226192,9.43392468083325,-0.21928054333333336,9.000000000000001e-07,0.0,69,3,51.43817903622371,292.23276,mp-1220678,Nb2Pd,https://materialsproject.org/materials/mp-1220678,63.98684239334937,38.57967925736618,66.64475801646813,21.20163177193172
-3.966367325,-79.32734649999999,6.167422054859009,-0.021682354952000084,0.0,0.0,62,20,241.50118816781927,896.9616000000002,mp-754553,Zn3N2,https://materialsproject.org/materials/mp-754553,23.37962388828368,49.99595141106482,66.81933867360782,8.163507242926926
-5.261722535,-21.04689014,14.214262340438964,-0.2841856174999995,4e-07,0.0,194,4,94.40725023982569,808.1288,mp-1066078,BiPt,https://materialsproject.org/materials/mp-1066078,48.23881190881247,20.12266457640988,74.2848164916928,16.502399150553774
-7.176006948333334,-43.05604169,6.528675026211016,-0.5974826857142853,2.5e-07,0.0,194,6,92.01770199497622,361.782324,mp-21204,ZrNiP,https://materialsproject.org/materials/mp-21204,50.25402558441154,39.08764781692075,65.64786014160127,9.254176637178688
-3.3650366391666666,-40.38043967,2.4590018569074514,0.1497894233333336,4.298333333333333e-05,0.0,63,12,212.27264305818107,314.343,mp-1073737,MgSi,https://materialsproject.org/materials/mp-1073737,45.3405267106483,24.044296869546628,72.07103510488233,8.570261958280527
-5.805747640178572,-325.12186785,2.4713039701899264,-2.0705249633371428,6.6625e-06,4.8914,1,56,419.3023792351149,624.0284687999998,mp-626654,Al(HO)3,https://materialsproject.org/materials/mp-626654,-9.853091784624024,77.67330347691184,-27.672142806700386,75.61178206433844
-6.868621885,-13.73724377,4.813229522510232,-1.3784324849999994,6e-07,0.0,225,2,41.35711537609212,119.87751200000001,mp-2052,ScAs,https://materialsproject.org/materials/mp-2052,23.636643891940487,22.745641910823334,58.753258724779975,-27.338059985956868
-6.672656817777778,-180.16173408,3.909379756816976,-1.9466076539525925,21.0000008,1.035,12,27,283.8743502886996,668.3207150000002,mp-757932,Li4Mn7O16,https://materialsproject.org/materials/mp-757932,0.3951287184612896,76.82363066273106,-7.397878515995372,92.81681229970243
-2.491097495,-4.98219499,5.472510161471287,-0.4625227525,0.0,0.5893999999999999,216,2,72.82720794844357,240.011,mp-406,CdTe,https://materialsproject.org/materials/mp-406,25.47707833826593,15.903601454365775,65.17806953056791,44.5237494938049
-6.670724166666666,-40.024345000000004,10.083993138122684,-0.1632669549999998,4.7773607,0.0,166,6,90.65048930096813,550.495285,mp-1217710,Tb2FeCo3,https://materialsproject.org/materials/mp-1217710,80.05743826774265,29.22016850788733,69.02915614645197,25.90278690613335
-6.978198535,-27.91279414,4.136071698878993,-0.1183272249999998,2.8e-06,0.0,187,4,68.48502286949693,170.5825386,mp-1217072,Ti3Al,https://materialsproject.org/materials/mp-1217072,52.92338303934349,30.787282880236944,49.575449335162446,35.59602139941792
-4.77263244125,-114.54317859,3.961232557453884,-1.8887020585316665,2.5e-08,0.7791999999999999,9,24,207.20533713872243,494.29041280000007,mp-764731,Li2NiO2F,https://materialsproject.org/materials/mp-764731,19.07517610685671,91.81329649979926,-0.5881704762397326,57.86398396419889
-4.860569243333333,-14.58170773,11.16145685543411,-0.9562315833333332,8.5e-06,0.0,216,3,72.88219787144631,489.884,mp-570014,YbSbPt,https://materialsproject.org/materials/mp-570014,87.10574302915256,-2.078387433905493,67.46259811056375,46.92373709428663
-5.723284125,-22.8931365,6.101623038145838,-0.10882370249999962,6.1e-06,0.0,139,4,58.089548227856646,213.44907719999998,mp-1214869,Al2CuMo,https://materialsproject.org/materials/mp-1214869,55.85459711917072,56.656844122124795,81.36045579872227,9.472257003109911
-8.972678342083332,-215.34428021,12.26317464255136,-0.3435996391466662,5e-08,0.0,198,24,326.7846085806348,2413.322800000001,mp-1221504,Mo3PdPtN,https://materialsproject.org/materials/mp-1221504,60.499255990177296,33.286578559190765,70.004247217995,16.140450450663444
-4.814883097857143,-67.40836337,3.1373351424923097,-2.8283253568492865,1.9996580000000002,1.9243,139,14,121.90940500876215,230.3292192,mp-753283,Li6NiOF6,https://materialsproject.org/materials/mp-753283,27.669299126948207,66.80710756036997,-4.773029016048016,65.46948579338675
-8.4571009025,-33.82840361,10.418157608738888,-0.5453580537500011,1.7199999999999998e-05,0.0,225,4,73.41820914480374,460.62300000000005,mp-1184237,ErZrRu2,https://materialsproject.org/materials/mp-1184237,96.96483827356647,2.3877742303822385,73.95705023699148,55.575122880080116
-5.9309361625,-23.72374465,12.809566821839947,0.07218484749999997,6.5e-07,0.0,194,4,82.91749776428397,639.634,mp-10187,TeIr,https://materialsproject.org/materials/mp-10187,53.133931611176145,40.71245810482358,74.48001492838951,15.798964890969643
-4.3560678,-26.1364068,9.420411133113324,-0.1787557091666662,0.00012509999999999998,0.0,216,6,85.48917420809049,484.989,mp-30579,ErCu5,https://materialsproject.org/materials/mp-30579,67.30506232496532,49.0348057962636,73.7473768356978,23.255050668339926
-8.459155532,-42.29577766,6.9736133877435975,-0.21746024247599965,8.8618343,0.0,221,5,56.5562840731049,237.514235,mp-20362,Mn3NiN,https://materialsproject.org/materials/mp-20362,49.0877000255612,62.80450837810218,88.70107737684631,9.510425784126692
-4.37336271875,-34.98690175,2.5851800075303184,0.17261831750000045,1.335e-05,0.0,194,8,117.15780615607594,182.395,mp-975321,LiSi3,https://materialsproject.org/materials/mp-975321,55.70491115266472,56.74730583521069,80.87832987074005,8.592657746056222
-7.6072736785,-152.14547357,7.147060641035893,-0.20301425029449974,25.0061341,0.0,123,20,226.51245713266403,974.92334,mp-1222039,Mn12Zn4CN3,https://materialsproject.org/materials/mp-1222039,49.08812902288529,62.81106881801063,88.6796605788394,9.572078500716534
-7.02982524,-42.17895144,9.52464319287714,-0.37177643888888906,7.0040325,0.0,216,6,88.36344279284546,506.8416,mp-1206797,GdInNi4,https://materialsproject.org/materials/mp-1206797,70.45410036119493,46.88474750508707,73.46642477045441,25.27829507642663
-9.822296883333333,-147.33445325,11.215241469647571,-0.43311191060266574,7.3697334,0.0,12,15,150.27422980187552,1014.9486,mp-1225420,Fe3(WN2)4,https://materialsproject.org/materials/mp-1225420,50.95449955210846,18.833232239921852,49.517148683518066,6.9696102840518535
-6.7310770999999985,-175.0080046,3.9413917291839904,-1.8966403779507688,20.0000008,0.0,160,26,278.64442625421304,661.379715,mp-770710,Li3Mn7O16,https://materialsproject.org/materials/mp-770710,-0.5922363126200345,75.86463562871889,-6.409070753584527,91.1071851762515
-4.806387605,-19.22555042,4.528942706790828,-0.9796817240300006,0.9999998999999999,0.13929999999999998,8,4,33.62190080593093,91.70014,mp-1067482,NiHO2,https://materialsproject.org/materials/mp-1067482,-25.28734193402442,59.77000294882276,10.631046527051822,69.6617221535795
-9.298381800000001,-55.790290799999994,5.437311122959121,-0.17042037958333367,0.98275765,0.0,194,6,69.56561100999548,227.7874,mp-1094023,V2C,https://materialsproject.org/materials/mp-1094023,29.773465633470487,59.79457931885354,82.83410849913948,21.5695145394034
-9.771675853333333,-29.31502756,8.56376577560065,0.5450440470833335,9.070000000000001e-05,0.0,187,3,39.53499851753958,203.8907,mp-571589,Mo2C,https://materialsproject.org/materials/mp-571589,53.08824147143209,35.334275988954296,68.3004787162467,9.774087956799422
-6.83537241,-129.87207579,5.728868662627759,0.14061430373473627,0.0013922000000000001,0.0,12,19,217.96609332468188,751.9841999999999,mp-1246451,Fe2Ni9N8,https://materialsproject.org/materials/mp-1246451,23.522537117969808,51.70285612603578,52.53414661974674,2.2734303103032425
-2.9211553025,-93.47696968,15.779110094867127,-0.14773237375000026,0.0009755000000000001,0.0,142,32,552.5412896991885,5250.469656,mp-669566,ZnAu3,https://materialsproject.org/materials/mp-669566,63.293886990576254,22.021246951221276,55.95379195180188,35.318530507642045
-3.056924238125,-48.91078781,5.600940569822573,-0.3250251456250002,0.0369723,0.1339999999999999,81,16,567.3585189444867,1913.6806,mp-1226985,Cd2In3Ag3Te8,https://materialsproject.org/materials/mp-1226985,25.100530188844505,15.917427412787926,64.90762944145624,45.032284454023866
-5.96992067,-23.87968268,11.781252892371386,-0.3845461783333333,0.8915075000000001,0.0,51,4,69.01739625507696,489.667138,mp-998985,TiAu,https://materialsproject.org/materials/mp-998985,50.23794447386036,35.27394980918752,54.56760226254517,33.006868684107644
-7.274009418333333,-87.28811302,7.521534770789727,-0.6314876641666677,0.0084262,0.0,194,12,170.70642144527162,773.2274,mp-1215663,Zr2SiNi3,https://materialsproject.org/materials/mp-1215663,69.15064127756466,46.63695684945161,77.03534621336725,23.59470525297805
-2.48708277,-9.94833108,5.466196012107089,-0.4585080275000002,4e-07,0.6198000000000001,186,4,145.82266521240587,480.022,mp-12779,CdTe,https://materialsproject.org/materials/mp-12779,25.474839667130386,15.903581529385765,64.37540774643631,44.25863568335002
-3.5333908991666667,-42.40069079,6.765022601062185,-0.2788842256857637,0.0057717,0.0,164,12,281.97419822578496,1148.7606,mp-1224057,In2Ag3SbSe6,https://materialsproject.org/materials/mp-1224057,25.24053363609973,7.487246554310449,11.778756729753749,-0.4829189233629592
-4.975878587,-49.75878587,2.681224601939895,-3.3472177310639992,0.0,5.8901,71,10,130.02106106664965,209.94126564,mp-5468,Na3AlF6,https://materialsproject.org/materials/mp-5468,-12.218977027388572,51.33592284330577,-2.537838599664338,57.41891347479719
-4.3751198875,-17.50047955,5.488267739966218,0.16964032603499926,0.0005712000000000001,0.0,221,4,17.811444062190468,58.86881999999999,mp-1018061,FeH3,https://materialsproject.org/materials/mp-1018061,33.35482621890509,51.20317634752905,61.914204930921024,-27.461808375296012
-5.414137277999999,-54.14137278,2.979473182913085,-3.3592303329806668,1.0000001,0.0,225,10,137.6568429678375,246.99501919999997,mp-1111107,K2LiTiF6,https://materialsproject.org/materials/mp-1111107,-13.176771456413526,51.931121256050034,-2.908628119061704,58.464561511178786
-7.079212725,-28.316850899999995,10.813856361258008,-0.382393686875,3.9e-06,0.0,221,4,69.67116412248265,453.7165,mp-862959,PmRh3,https://materialsproject.org/materials/mp-862959,52.10759390109425,30.896956545761128,55.515342058492344,38.38724694625617
-9.067864946666667,-54.40718968,8.621083991257581,-0.29926813333333274,0.5311511999999999,0.0,187,6,105.84381805417644,549.5133950000001,mp-1225255,Gd2CoNi3,https://materialsproject.org/materials/mp-1225255,54.02052031874217,-16.938158818909614,25.148424398810054,24.66377191829217
-7.7379988625,-92.85598635,2.5949706062604485,-3.11194968,1.45e-06,5.1741,24,12,153.79338108935508,240.3372,mp-557244,SiO2,https://materialsproject.org/materials/mp-557244,-80.30543296789351,30.256821609477072,-79.19837903454733,41.4881969137571
-9.280711656666666,-27.84213497,10.624382533262407,-1.1915170999999998,7.0000000999999985,0.3258000000000001,216,3,74.09857402677876,474.094,mp-11839,GdSbPt,https://materialsproject.org/materials/mp-11839,87.0588132884092,-2.4075437840073897,68.12133652157246,46.239546503820044
-4.8523225825,-19.40929033,14.222595568110357,0.026827832499999538,0.0,0.0,194,4,93.93619947475071,804.568,mp-21380,PtPb,https://materialsproject.org/materials/mp-21380,49.11057247907462,20.066594276506024,32.02919892467091,8.6891556719257
-5.7867262959375,-185.17524147,4.183067870259238,-1.8513773325599996,24.809553,0.0,3,32,287.0075733519691,723.001465,mp-1175898,Li9Mn2Co5O16,https://materialsproject.org/materials/mp-1175898,13.081487292001345,87.02301188210322,1.8624488795504919,94.65314136282915
-6.712272658125,-214.79272506,3.7761186083938014,-2.53216170375,14.9999976,2.8319000000000005,10,32,279.06861090567685,634.6109,mp-756673,Li9Cr5(SiO8)2,https://materialsproject.org/materials/mp-756673,6.168870094732402,91.65515663164886,-4.087101925775085,93.9119580926805