energy_per_atom,energy,density,formation_energy_per_atom,total_magnetization,band_gap,sgr,num_sites,cell_volume,weight,mp_id,formula,URL,tsne_cry_0,tsne_cry_1,tsne_xrd_0,tsne_xrd_1
-5.446992301666668,-32.68195381,2.429617442969186,-0.8840507275000012,2.9999322,0.0,64,6,124.29621636075798,181.86399,mp-1077196,CoO2,https://materialsproject.org/materials/mp-1077196,5.545324248301141,70.96961096293536,13.887731548178024,84.54454024836505
-8.6330715175,-34.53228607,10.893703261843696,-0.32726171875,3.6000000000000003e-06,0.0,225,4,70.11474881234257,459.9767,mp-866112,HoNbRu2,https://materialsproject.org/materials/mp-866112,95.91302506459844,4.649879271619644,65.63691027575793,64.54300124760036
-1.909452815,-15.27562252,10.403548592532026,-0.13642728875,3.2e-06,0.0,194,8,125.51741663803331,786.3871379999999,mp-1188000,Zn3Au,https://materialsproject.org/materials/mp-1188000,51.027065852263185,39.17943924266378,76.23489917165814,15.018422624424755
-7.031503795833332,-253.13413665,4.125803872925799,-1.7210939653200001,3.0000000750000004,0.02080000000000015,156,36,419.88042936579524,1043.24214,mvc-5444,MnO2,https://materialsproject.org/materials/mvc-5444,-0.424423201907539,75.54070032872467,-6.341032125763848,91.04611792250222
-8.267617045,-49.60570227,11.248733524791104,0.07703453833333285,0.00015235,0.0,74,6,87.22439396507002,590.87076,mp-1217827,TaVCu,https://materialsproject.org/materials/mp-1217827,77.05066490446147,29.566946715391932,69.95496243298093,23.84503146124318
-8.456803808333332,-202.9632914,4.067270477587903,-1.1361704928566665,0.088310925,0.0,63,24,246.3396701880646,603.3764,mp-1029338,LiV2N3,https://materialsproject.org/materials/mp-1029338,-27.881754616192552,60.6876766046289,-22.49670847972154,58.237649842749796
-9.9356506725,-39.74260269,20.070223939813946,-0.7992235524999991,1e-07,0.0,221,4,62.477684103820934,755.1410000000002,mp-2126,HfIr3,https://materialsproject.org/materials/mp-2126,67.715672880396,62.989389863101216,88.89889242382343,17.784058931564566
-6.0160769910714285,-168.45015575,5.183912705230811,-1.7355544960714286,1.99999285,2.2092,62,28,256.2508582955141,799.9704,mvc-15084,Mg(FeO2)2,https://materialsproject.org/materials/mvc-15084,18.78359703218696,55.587400501278964,3.65357930417049,48.67532923887287
-8.164174313235295,-277.58192665,13.707534466193426,-1.0817659179411776,0.0003089,0.0,64,34,627.3649116247492,5178.816000000002,mp-1207440,Zr7Pt10,https://materialsproject.org/materials/mp-1207440,58.744990350654746,21.3760597653703,60.57432883440063,9.276594805586557
-8.325096465,-33.30038586,10.158764220889092,0.0585477050000005,11.0493625,0.0,221,4,58.828504195600516,359.898135,mp-30785,Mn3Pt,https://materialsproject.org/materials/mp-30785,55.01639815824882,57.364144651734534,87.2435560744124,1.8128697802382123
-7.108476455,-227.47124656,3.621398458935565,-2.8856430797916666,0.0011904,0.0,2,32,281.52481077955736,613.9653999999998,mp-766170,Li9Ti5(SiO8)2,https://materialsproject.org/materials/mp-766170,5.435339713421872,83.76847605857498,13.379952613879983,95.56011100530223
-1.9267714515625,-61.65668645,10.27802453285916,-0.15374592531249998,2.75e-07,0.0,223,32,508.20137236610003,3145.5485519999997,mp-30424,Zn3Au,https://materialsproject.org/materials/mp-30424,51.09686166373196,39.64532917868871,74.0131276779685,15.088025525692064
-5.23921832,-15.71765496,14.162676216584776,-0.42442811555555576,0.27080329999999997,0.0,139,3,51.799982277876005,441.800138,mp-1018123,TiAu2,https://materialsproject.org/materials/mp-1018123,59.35582789861896,20.13088118569916,70.16887820360378,21.213023262598774
-4.51383337,-22.56916685,4.970467769953358,-2.774901583047333,0.0,2.1161,221,5,63.197578943049535,189.1684096,mp-998358,MgAgF3,https://materialsproject.org/materials/mp-998358,2.677170938642753,-97.4654947352003,39.96782719017858,-74.31272646614644
-6.792367512222223,-61.13130761,7.9678488827268,-0.33949031888888864,1.3333333333333334e-07,0.0,180,9,148.91765215717254,714.5591400000002,mp-363,NbGe2,https://materialsproject.org/materials/mp-363,63.97503500265525,37.60037657795627,78.00679645499378,22.740616148160147
-5.6259556297368425,-213.78631393,10.536281851515318,-0.21091084131579035,0.0024919,0.0,15,38,546.9271489655026,3470.3059999999996,mp-1196893,B3Pd16,https://materialsproject.org/materials/mp-1196893,68.27826504205301,58.40101269288184,56.8916210597519,41.75526543698829
-6.487456382,-32.43728191,5.561321447434987,0.3320302060479989,3.1933377999999997,0.0,115,5,61.24392394997908,205.1124,mvc-13889,Zn(FeN)2,https://materialsproject.org/materials/mvc-13889,26.155774162136336,49.934407179819424,12.185949441845873,45.12034643322647
-2.8308704428571434,-19.8160931,1.9599964269573664,-0.09144946857142854,2.95e-05,0.0,123,7,135.83572995312974,160.332,mp-1077902,Li(Mg2Si)2,https://materialsproject.org/materials/mp-1077902,92.61988254810156,9.269974893401876,58.08782447666957,67.37940478657643
-5.33130626,-53.3130626,6.324095032985245,-0.5223085751719999,7e-07,0.0,63,10,80.31658768902035,305.88244,mp-29658,ZrNiH3,https://materialsproject.org/materials/mp-29658,54.93159545789025,24.77686036777131,51.938440239133215,2.002728891851824
-1.7296120175,-6.91844807,2.757195815902049,-0.13224466875000007,8e-07,0.0,225,4,72.84894352441438,120.96,mp-864762,LiMg2Zn,https://materialsproject.org/materials/mp-864762,85.63742734154485,-0.3458490592691204,65.52871728930913,43.55651875172347
-4.8127481925,-19.25099277,12.02728478034672,-0.2131261775000004,4e-06,0.0,194,4,89.102301869319,645.3679999999998,mp-571512,TePt,https://materialsproject.org/materials/mp-571512,52.85301202131848,40.337863660565,74.51822507822246,16.133328838477006
-8.587217059166667,-103.04660471,4.888101325362993,-0.7740624820233322,0.28289305,0.0,63,12,117.5356252065526,345.9876772,mp-1245994,AlCr2N3,https://materialsproject.org/materials/mp-1245994,24.95011913240709,54.08152483355678,11.693109970953973,45.950370127792844
-6.574221349166668,-78.89065619,4.3669345231734,-0.4674627799600006,3.25e-07,0.0,62,12,116.80255397494959,307.1708,mp-1245798,LiFeN,https://materialsproject.org/materials/mp-1245798,37.17728311875416,39.55852112958516,64.26116202358766,-14.724386602311213
-6.3425562175,-25.37022487,5.32021291370513,-0.10150399625000084,2e-07,0.0,139,4,65.23597276649069,209.01,mp-1187474,Ti3Zn,https://materialsproject.org/materials/mp-1187474,60.70866876828401,53.73254625467156,80.89651607674651,17.97391103300714
-6.00886193,-96.14179088,3.93246935452443,-2.0373633463700003,8.0000011,0.13210000000000033,5,16,139.9844200538892,331.5094850000001,mp-1174329,Li5Mn2CoO8,https://materialsproject.org/materials/mp-1174329,6.517398191496534,86.32178327130407,-4.942495682853629,94.50428876447066
-6.1650578725,-24.66023149,16.830666661680368,-0.6854104024999996,0.0012869000000000001,0.0,221,4,60.403887313465795,612.2335386,mp-188,AlPt3,https://materialsproject.org/materials/mp-188,56.91645005611907,58.15366651882478,81.16221561722304,12.094676288885307
-5.801855905,-185.65938896,4.267071336747162,-1.8665069416224995,16.0,0.4817,1,32,281.3574144567509,723.001465,mp-1175560,Li9Mn2Co5O16,https://materialsproject.org/materials/mp-1175560,19.01566767052165,89.08614547376318,10.558683694343893,90.72553960695384
-8.66004937,-34.64019748,11.012185203325595,-0.3569022187499993,0.0006582999999999999,0.0,225,4,69.71151662616451,462.30538,mp-867919,ErNbRu2,https://materialsproject.org/materials/mp-867919,95.92515823215864,4.859603629504411,65.32922370648693,64.61814300702603
-5.81370920923077,-75.57821972,4.566441449058081,-1.7577111730769237,2.9999708,0.13329999999999975,12,13,128.51198224305583,353.404785,mvc-3029,Mg2Co3O8,https://materialsproject.org/materials/mvc-3029,-0.41753929807317774,71.69225005613139,-6.8962267321601995,62.957562473995104
-7.6074788025,-30.42991521,9.74482960954171,0.5809060956249992,3.0250421000000003,0.0,225,4,67.1109198311306,393.838665,mp-631633,LaCoTc2,https://materialsproject.org/materials/mp-631633,96.22221438391328,8.799515197051882,62.390506695107184,65.158291673128
-6.4252106625,-25.70084265,10.916028011137671,-0.8495590937499989,0.0005537999999999999,0.0,225,4,67.00314421516633,440.46432,mp-865696,HoGaRh2,https://materialsproject.org/materials/mp-865696,95.95827671038143,9.060584520842427,62.184656958991845,65.1556681267156
-4.215671405555557,-37.94104265,2.5732190199457383,-0.8986089229888887,3.9999995000000004,0.0,225,9,109.76133497745451,170.08931919999995,mp-1079023,Si(NF3)2,https://materialsproject.org/materials/mp-1079023,-25.583722930500112,61.46244806872154,-41.59450776216069,65.48276833423779
-6.863279005384616,-89.22262707,2.850115075303149,-0.2113669919230771,1e-07,0.0,225,13,101.77697743001859,174.68791199999995,mp-8772,ScB12,https://materialsproject.org/materials/mp-8772,34.7698350547831,39.17207123445011,57.55835071173738,31.781034965624322
-4.6732160225,-18.69286409,8.578164041890428,-0.6807119462500002,5.91e-05,0.0,225,4,68.8855001132593,355.855,mp-864883,MgSnPd2,https://materialsproject.org/materials/mp-864883,93.86598062662777,8.392052581677753,58.631688440416525,67.04872621761439
-5.7413878225,-45.93110258,17.705133373713178,-0.441098985,4.385e-05,0.0,127,8,122.85832981510063,1309.9499999999996,mp-1078666,GaPt3,https://materialsproject.org/materials/mp-1078666,58.348520675469466,58.28881669827474,81.86284020002303,13.583379870607946
-7.497290022083334,-359.86992106,3.9927023459077033,-2.1519861712122235,8.999999800000001,1.7275,212,48,566.7403229809363,1362.70534,mp-774302,TiMn3O8,https://materialsproject.org/materials/mp-774302,6.8177779089039,70.49247607842564,15.935760363663665,83.73288220456138
-9.86635669,-39.46542676,19.621968091421174,-0.844146284999999,1.57e-05,0.0,221,4,68.35173669058065,807.6868800000002,mp-30741,PaIr3,https://materialsproject.org/materials/mp-30741,69.07933294550615,56.81169593535154,56.875383716855566,41.35511120807325
-6.801673789166667,-163.24017094,4.5274646202858735,-1.6599679288699996,16.999997699999998,0.0,8,24,254.7802930232084,694.659225,mp-780886,Mn3Cr3(CoO8)2,https://materialsproject.org/materials/mp-780886,-10.98644012021985,69.73005473387386,1.4746170243477077,58.99684815173924
-7.3701854865,-294.80741946,3.573288755762844,-3.3350950997500006,0.0,3.2993999999999994,1,40,379.0584930161158,815.6902176,mp-685036,Al2O3,https://materialsproject.org/materials/mp-685036,4.618986566876111,62.08725784906253,7.7228435397154405,52.10462610454999
-6.516675365999999,-65.16675366,4.198537891855607,-1.770749730442,8.0,0.3344999999999998,12,10,107.47693388891804,271.746685,mp-1176665,LiMn2CoO6,https://materialsproject.org/materials/mp-1176665,11.005038853194316,75.97023680429002,20.894126112773712,82.59723672852544
-9.57558214,-76.60465712,11.093983104890368,-0.17943869312500027,0.002001,0.0,200,8,141.39223311215832,944.634849,mp-1220409,Nb6OsAu,https://materialsproject.org/materials/mp-1220409,64.26593725568426,23.040704481434716,69.8225883386738,25.36244314056057
-7.566579616666666,-90.7989554,3.2044633135187284,-1.4398567136899996,0.0,0.0,9,12,109.96041878870243,212.1986412,mp-1227412,BeAlSiN3,https://materialsproject.org/materials/mp-1227412,5.800735768511611,56.57125537519226,55.450337233459464,32.64201517183139
-7.043843718571429,-147.92071809,3.451005804172835,-2.7639948707142863,1.0000000666666666,1.4125,1,21,214.88566795927446,446.5849158,mp-769572,LiAlVO4,https://materialsproject.org/materials/mp-769572,0.40175457116177415,77.1894935518332,-7.612039199374586,92.78947228399626
-7.210001515,-28.84000606,17.544107753752726,-0.2582038749999995,2.7438936000000003,0.0,221,4,60.315141873742625,637.2480999999998,mp-2515,CrPt3,https://materialsproject.org/materials/mp-2515,57.42436047729603,58.29766506837776,81.64051201401888,12.129936350722053
-6.518897868333332,-39.11338721,10.192678253711463,-0.12906044166666555,0.0019402999999999998,0.0,8,6,87.78383659319313,538.8325,mp-977273,MgRh5,https://materialsproject.org/materials/mp-977273,60.479716819233744,61.75018242318373,82.42165835259208,9.381055274952177
-3.1376285283333334,-18.82577117,12.726151817147649,-0.22455478299999973,5.3e-06,0.0,191,6,133.60500998058095,1023.931145,mp-1298,KAu5,https://materialsproject.org/materials/mp-1298,53.1750891183349,17.45774664327859,50.32111485388248,6.425212388625617
-6.965993805238094,-146.28586991,3.76364449815588,-3.250822078809524,0.0,3.2924,174,21,188.30501485333446,426.7970316,mp-1222051,MgAl2O4,https://materialsproject.org/materials/mp-1222051,7.535964431887928,61.23352553105907,7.997871805668528,49.068763603914384
-6.49031794,-38.94190764,10.622571540361845,-0.2575956233333325,1.8908772,0.0,227,6,89.66634702075187,573.6012000000002,mp-632,TmCo2,https://materialsproject.org/materials/mp-632,80.16019660104057,29.484959507461273,71.29057894942433,26.194771042277182
-8.762774357083334,-210.30658457,15.218263566987948,-0.3660250675000008,0.00042229999999999996,0.0,123,24,344.3750100969902,3156.07736,mp-1219408,Sc5Ir15C4,https://materialsproject.org/materials/mp-1219408,51.34081318115989,34.831141162728045,55.713900055211994,35.295663482166994
-5.237708677222222,-94.27875619,4.6178498028250115,-1.306712268749999,4.044792,0.0,2,18,175.95575990907898,489.32139000000006,mp-752567,Li3Co2Cu3O10,https://materialsproject.org/materials/mp-752567,3.67117358426362,81.03185455429222,6.19818578486441,76.85089181206064
-5.80009748375,-185.60311948,4.263583782876282,-1.8647485203724996,15.999999800000003,0.4415,1,32,281.5875610165138,723.001465,mp-1175785,Li9Mn2Co5O16,https://materialsproject.org/materials/mp-1175785,18.37731867183243,88.30795270677946,10.552734248428973,91.2796120580426
-4.859985036458333,-233.27928175,5.207995892845835,-1.259577418958333,6.9999999666666675,0.0,12,48,423.0601501182568,1326.8556,mp-758143,Li3Ni5O8,https://materialsproject.org/materials/mp-758143,22.499261169263086,78.01772855573554,29.43182979558486,77.7777989053998
-8.1444136625,-65.1553093,13.565859633105338,-0.6241596550000006,1.4103808999999998,0.0,47,8,135.14013408969623,1104.03432,mp-1216758,U2(PdRh)3,https://materialsproject.org/materials/mp-1216758,63.880908022006366,55.10211088380404,56.50684675957554,36.0056635243429
-5.204070337575757,-343.46864228,4.834983574153487,-1.2965319564393931,7.000262566666668,0.0,1,66,636.7144444153201,1853.9184,mp-759182,Li3Fe2Ni5O12,https://materialsproject.org/materials/mp-759182,21.9510463202678,77.74627366032051,28.59018313757978,77.15238672300862
-5.613579203571428,-78.59010885,3.979642191731561,-1.6893231457142852,5.0000002,0.0,12,14,143.1120227805151,342.981785,mp-1177928,Li2MgCo3O8,https://materialsproject.org/materials/mp-1177928,7.003738119513321,71.99213563346562,20.859995162439112,82.7766853399442
-2.7426988625,-10.97079545,7.898907867236114,-0.14420052000000005,6.409999999999999e-05,0.0,139,4,69.4885777281869,330.5456,mp-862716,LiAg3,https://materialsproject.org/materials/mp-862716,48.184909410773564,35.82043147902253,56.71148021313576,34.288744186870595
-5.577192331,-55.77192331,3.8149006408591415,-1.1805965122499995,2.00000005,0.049299999999999684,12,10,96.4436594467837,221.5684,mp-761189,LiFeO3,https://materialsproject.org/materials/mp-761189,0.7823259558844895,76.77105449190064,-7.749895524365092,62.99200315786707
-7.124367310833333,-85.49240773,4.051222952757337,-1.8139574803199991,1.5e-07,1.0729000000000002,87,12,142.5367370005379,347.74737999999996,mp-19395,MnO2,https://materialsproject.org/materials/mp-19395,-10.51454780331525,69.06276003313077,-9.206078030780313,61.390189457898906
-5.5128508,-44.1028064,4.125864003748881,-0.35683961333333336,1e-07,0.0,123,8,123.03375159516716,305.6962316000001,mp-1217017,TiAl6Mo,https://materialsproject.org/materials/mp-1217017,47.263207284388926,38.500765776047075,80.71789636571184,10.353190314517242
-5.79969605625,-185.5902738,4.262273980119247,-1.8643470928724997,15.999999599999999,0.4684999999999997,2,32,281.6740932679567,723.001465,mp-1175518,Li9Mn2Co5O16,https://materialsproject.org/materials/mp-1175518,18.71825945119007,88.59950972384054,10.373469214111704,90.86406834910922
-2.07781457,-8.31125828,1.436683724839916,0.5984045,1.535e-05,0.0,194,4,118.55538988757785,102.5730772,mp-1094664,MgAl,https://materialsproject.org/materials/mp-1094664,24.808422680744425,7.441080550269389,58.407551891084445,32.11286996944673
-5.966296150714285,-83.52814611,4.267815289896245,-1.6732113285714283,3.0000002,0.0,74,14,141.33720900482368,363.2562,mp-768708,LiCrNiO4,https://materialsproject.org/materials/mp-768708,0.5997714714674545,68.2859941108645,16.95205832302441,83.05742466080791
-4.871535419285714,-68.20149587,6.523456338722466,-0.7177618973214288,9.335e-05,0.0,129,14,153.84033071994347,604.3643999999998,mp-1023130,Cu4O3,https://materialsproject.org/materials/mp-1023130,25.58810053928712,54.975937342360105,71.52152012587045,7.812194353869484
-5.804577130625,-185.74646818,4.244655301799401,-1.8692281672474989,21.999999300000002,0.6020999999999996,1,32,282.8432636451645,723.001465,mp-1175705,Li9Mn2Co5O16,https://materialsproject.org/materials/mp-1175705,10.300156621786607,87.05364692535045,8.344869625878157,95.6131850928382
-2.588419006,-12.94209503,7.225734593658251,1.1482692162499994,3.2670624,0.0,221,5,57.62989925528048,250.773,mp-1094082,Ni4O,https://materialsproject.org/materials/mp-1094082,49.92618698463103,62.4697502325486,86.66320101165266,10.187775562013618
-7.79235408,-62.33883264,7.0472928160234805,-0.1029418131250006,2.1691472000000003,0.0,200,8,116.41952042858698,494.082,mp-1216451,V6GaSn,https://materialsproject.org/materials/mp-1216451,50.210322077827136,41.01165948693818,80.57675601437896,-2.9088222524077687
-2.6969717125,-21.5757737,2.2287556618798576,0.4943975544050003,0.07666955,0.0,194,8,129.52238663203315,173.84339999999997,mp-1185783,Mg3N,https://materialsproject.org/materials/mp-1185783,60.70568038685258,53.60848337232855,80.84406012838149,18.185869927503678
-6.01354669625,-96.21674714,3.9448814347546937,-2.04204811262,8.0000005,1.0164999999999995,12,16,139.54397643563792,331.5094850000001,mp-1173979,Li5Mn2CoO8,https://materialsproject.org/materials/mp-1173979,5.818535509478483,86.71535820919195,-4.995973248040177,94.40698030850679
-3.33255664,-6.66511328,6.6342472836691115,-0.0441682633333329,1e-07,0.0,187,2,33.75262420957766,134.8497386,mp-1228901,AlAg,https://materialsproject.org/materials/mp-1228901,46.974982299285344,33.45995175219697,69.39408770709058,18.990488180669576
-5.970808542142858,-83.59131959,4.113029391438278,-1.646909234285714,5.9999998,0.4701,1,14,147.46401800668718,365.2572,mp-1178108,Li(FeO2)2,https://materialsproject.org/materials/mp-1178108,10.2555592651121,73.63197488204929,16.89291642210393,88.59142636155094
-5.5213457865625,-176.68306517,4.292205520547625,-1.7261471212499997,22.0000003,0.5877000000000003,2,32,282.80108160946975,730.991765,mp-1175419,Li9Co7O16,https://materialsproject.org/materials/mp-1175419,9.666806061272306,86.78686310652658,8.8442886572462,96.31961617601429
-6.450143491666666,-38.70086095,10.371337503020511,-0.17589285249999995,0.0003673,0.0,216,6,89.59485382550375,559.58845,mp-1217482,TbHoCo4,https://materialsproject.org/materials/mp-1217482,80.07853533691701,29.430812338365378,71.352719657624,26.186516290197282
-5.7980070025,-162.34419607,4.5719629002597815,-1.5478466772457142,15.0000283,0.0,8,28,269.6818368283176,742.515125,mp-867541,Li4Mn3Co2Ni3O16,https://materialsproject.org/materials/mp-867541,-2.6691950063814383,72.24759007449462,2.645732478779538,60.72064475080167
-4.06353311,-8.12706622,4.26395689421459,0.13443935250000028,2.8100000000000002e-05,0.0,123,2,39.68476796128581,101.90313859999999,mp-988939,AlAs,https://materialsproject.org/materials/mp-988939,22.001270814948263,22.525516396122875,27.980621503485214,-43.96940058182583
-8.05765836,-64.46126688,15.217663583426932,0.8554335324999993,9.3e-06,0.0,194,8,133.2930121398211,1221.5359999999996,mp-1183599,CaOs3,https://materialsproject.org/materials/mp-1183599,51.56626014791623,39.13024474647164,75.93189776075208,14.383164250629385