energy_per_atom,energy,density,formation_energy_per_atom,total_magnetization,band_gap,sgr,num_sites,cell_volume,weight,mp_id,formula,URL,tsne_cry_0,tsne_cry_1,tsne_xrd_0,tsne_xrd_1
-4.330697991428571,-151.57442969999997,3.8720950198305855,-1.4378075297904762,0.7153163,0.0,225,35,1003.5692957670957,2340.15315424,mp-1210285,Na8Zr6BBr20,https://materialsproject.org/materials/mp-1210285,8.073462025935656,-0.2440049196460479,-1.0849915051717471,-18.762776514179087
-4.955867946666666,-14.86760384,4.0765166155558346,-0.8167750066666658,5.0,1.5292,166,3,87.47522089014595,214.746045,mp-569843,MnBr2,https://materialsproject.org/materials/mp-569843,20.39178701202925,10.939869354113794,28.10802934864153,-42.95003894960433
-6.509923145,-52.07938516,6.709205426417675,-2.148837858437501,1.00839185,0.12639999999999985,12,8,95.15951200434596,384.4804,mp-32749,NdO3,https://materialsproject.org/materials/mp-32749,-12.656625748667095,-32.75995319099432,16.93646234214965,-40.55020768380725
-4.529949809166666,-163.07819313,3.8745047462485207,-0.652964924486111,7.058999125,0.0,62,36,851.1606390980171,1985.99723136,mp-505443,Na3(FeSe2)2,https://materialsproject.org/materials/mp-505443,-4.215204846971539,-0.707015159968495,-34.12364757475967,-36.37227848873145
-3.9264885765277784,-282.70717751,3.783627567864332,-0.5002179419163504,0.0,0.7856999999999998,14,72,2346.391252257757,5346.378744,mp-570167,Rb3SnP3Se11,https://materialsproject.org/materials/mp-570167,-0.5571770460434051,-0.041873640918216985,-29.09354844467309,-43.05718468705546
-3.8003001425,-15.20120057,5.82204029041508,-0.67295789703125,0.0,0.10709999999999996,166,4,81.80456912820375,286.8162,mp-20162,InAgS2,https://materialsproject.org/materials/mp-20162,22.48828051676521,10.18521045488536,32.65949286281038,-39.097171390014076
-7.800415310000001,-46.80249186,5.915851133501744,-4.2758963574800015,0.0,4.256999999999999,166,6,97.62692394237223,347.80654639999995,mp-8111,LaOF,https://materialsproject.org/materials/mp-8111,-23.93168349882649,-66.7499833331008,-16.26235133955451,-68.10668324210104
-6.212090732857143,-86.96927026,3.073690156874578,-1.9511592175595247,0.99999945,0.0,74,14,312.62539238060816,578.6757,mp-1246823,YMgTiS4,https://materialsproject.org/materials/mp-1246823,1.968081119411532,26.159968763300405,-22.229942592398075,-79.68807465047611
-3.234442645,-58.21996761,4.14124767865169,-0.13159123583333315,3.0,0.4259,1,18,714.8797454916505,1782.85124,mp-1179137,Tc(I3O)2,https://materialsproject.org/materials/mp-1179137,-2.4323051559730446,-5.975730203038639,-33.61515666287749,-30.874573120414567
-4.751115432000001,-47.51115432,6.3404216535003854,0.2166123219999996,0.40199665,0.0,227,10,332.9559542268986,1271.3228,mp-1210201,Nd4Ni,https://materialsproject.org/materials/mp-1210201,-10.042848374811104,-62.30116089553028,-7.96765239450675,-66.38328554958358
-4.699530474545455,-103.38967044,6.1259549858528475,-1.056488462197786,6.15e-06,1.1972,63,22,552.4672153239882,2038.1269037999998,mp-1191238,CsSm2Cu3Se5,https://materialsproject.org/materials/mp-1191238,31.913269550557214,-3.5677430767948963,3.0891160174818584,-21.29874112238379
-5.817386330740741,-314.13886186,3.936784408753371,-4.08942229805963,0.0001716,6.8500000000000005,87,54,742.3815532303406,1760.0285531999998,mp-1208679,Sr5Al3F19,https://materialsproject.org/materials/mp-1208679,-14.780226937975982,-26.02767641284824,-15.349130433336295,-16.827167502373488
-2.5754878077272725,-56.66073177,5.4591257309440415,-0.2847511082445141,1e-07,0.05269999999999997,63,22,628.2326360391561,2065.3540000000007,mp-1191656,Rb2Cd5As4,https://materialsproject.org/materials/mp-1191656,18.731547562331556,1.128018423316275,2.6153489133547034,-20.88319797675485
-3.6948518145454554,-81.28673992,2.819216216148005,-1.1107198187878786,2.0054987,0.34140000000000004,58,22,872.9820034416904,1482.1241544000002,mp-608551,Ti(AlBr4)2,https://materialsproject.org/materials/mp-608551,-7.111044057649446,-5.7657654202437,-32.24709279368536,-47.17160080697008
-5.488942694444443,-395.20387400000004,3.635967095880575,-3.993844551904444,0.0,6.2294,11,72,1029.8647419023605,2255.0233536,mp-556290,SrMgF4,https://materialsproject.org/materials/mp-556290,-14.13528295235538,-30.743126807266254,21.571951840692517,-48.632224206311605
-6.5820178155,-263.28071262,5.501479268672774,-2.1247915756875004,2.999782175,0.20209999999999967,58,40,839.6640638983271,2781.8644000000004,mp-1209031,Sm3CrS6,https://materialsproject.org/materials/mp-1209031,12.605760162277393,-4.688396527490309,-3.869133506470441,-16.356879187537757
-3.658219307777778,-32.92397377,4.101747368089732,-1.1663068802681995,2.0040712,0.0,225,9,340.53871237776025,841.1749037999999,mp-1207229,Cs2MoBr6,https://materialsproject.org/materials/mp-1207229,-1.1237794264879262,14.106777745728955,-28.17289860714266,-70.08830088226632
-4.182512883999999,-62.73769326,7.739829668818652,-0.3152442431458335,0.0001936,0.0,8,15,367.0472764869528,1710.8200000000004,mp-1217383,Te8Pd5Se2,https://materialsproject.org/materials/mp-1217383,28.388752040401453,23.780277225697308,26.320247170949532,-43.91718866642025
-3.1313742207142856,-87.67847818,3.4468303880406537,-0.8758146484285716,2.075e-06,1.5323,14,28,1098.0579397510594,2279.2716,mp-541688,K3GaTe3,https://materialsproject.org/materials/mp-541688,-3.9261463467278777,-7.314143842798876,-32.381436191872375,-31.819955610373093
-3.166542368636364,-139.32786422,4.4087936569637565,-0.7066517140752353,0.0,1.0785,14,44,2063.7926724756835,5479.447230399999,mp-1200610,Cs4GeTe6,https://materialsproject.org/materials/mp-1200610,-6.7324976750021195,-13.135465862070415,-40.40446013558032,-14.43201523102475
-2.521533822173913,-231.98111164,6.172394623381799,-0.007611608043478297,0.0,0.4778000000000002,2,92,2225.299657265465,8271.668000000001,mp-570748,Zn13Sb10,https://materialsproject.org/materials/mp-570748,21.19131657426808,7.8563952889491615,6.073675039297919,-7.87834706092592
-3.5553197885714285,-24.88723852,5.1019541567146165,-0.593242482291667,7.03e-05,0.8244000000000002,121,7,198.82546183120112,610.885,mp-34169,Zn(InSe2)2,https://materialsproject.org/materials/mp-34169,14.747894975259712,14.851422544430289,5.780112600843407,-17.028054374644135
-7.580427146944443,-272.89537729,3.667506861833708,-3.1467957010648147,0.0,5.6783,14,36,359.0491741003013,793.004728,mp-1020654,SrBeB2O5,https://materialsproject.org/materials/mp-1020654,-18.918312512664688,-29.833511964312567,-2.4280239050715293,-21.83748247904479
-6.236530947142858,-43.65571663,5.969617036649586,-0.957215069598214,4.5e-06,0.0,12,7,154.8603451799793,556.721,mp-1217118,Ti3(TeSe)2,https://materialsproject.org/materials/mp-1217118,-2.8873455838120914,14.14503509005699,26.460462630645342,-31.31018292699855
-3.2260307942857147,-90.32886224,3.498760868650045,-0.8306528227142859,1.5225e-05,1.2332,14,28,1174.7584166731158,2475.2196,mp-540619,K3SnTe3,https://materialsproject.org/materials/mp-540619,-3.8551293969489984,-7.6840014859033445,-32.768856499547056,-31.111629394990512
-5.456663065,-130.95991356,6.568915002207872,-1.1225246375868057,0.0,1.1126000000000005,64,24,495.88943104165037,1961.6856,mp-28941,HfAg2S3,https://materialsproject.org/materials/mp-28941,14.893481921562396,-14.11801221500402,5.273123894728916,-24.12169649405035
-5.4888188175,-65.86582581,3.6374022390400667,-3.993720674960001,0.0,6.236599999999998,63,12,171.57640117326955,375.8372256,mp-15316,SrMgF4,https://materialsproject.org/materials/mp-15316,-14.134239825684539,-30.74677403203453,21.58761377538228,-48.627825420877215
-4.0386854975,-16.15474199,3.5138141730208687,-1.0265432877812506,1.9399999999999997e-05,0.0,160,4,104.88238520149058,221.9383,mp-7794,KSnS2,https://materialsproject.org/materials/mp-7794,14.46631609979316,5.780677711475655,-7.3877908413472655,-6.441426868361376
-4.522011531,-45.22011531,4.204410401553312,-0.9362058929202582,4.99999985,1.243,72,10,378.1022311354313,957.3378976,mp-573947,Cs2MnSe2,https://materialsproject.org/materials/mp-573947,-0.12632866694350675,-29.267615428578907,-27.718525926897694,-46.956863195570776
-3.4798136132692314,-180.95030789,5.2508254588133685,-0.5598010177130769,0.0001656,0.6021999999999998,62,52,1162.5300668807847,3676.0608,mp-1214971,Ag6Ge(S2Cl)2,https://materialsproject.org/materials/mp-1214971,15.315283947894905,-14.940386927874293,-0.6376952127566531,-27.343136686594445
-3.46696996125,-27.73575969,4.277105727207971,-0.8291202000468747,0.0034372,1.6857,121,8,242.7105307098309,625.1576,mp-1079645,K2CdSnSe4,https://materialsproject.org/materials/mp-1079645,-4.81550415728641,1.167570770152309,-38.779008362195626,-38.3270735489534
-5.2059023785714285,-145.7652666,3.66632171391631,-0.7110738349687493,9.999999825,0.4796,15,28,711.5064028859582,1570.94251424,mp-29745,Na2Mn2Se3,https://materialsproject.org/materials/mp-29745,-3.6455513742979186,-0.5630644880655868,-11.953412747067215,-12.115191391236285
-4.507666891428571,-31.55366824,4.837883210565186,-0.4189578087202384,4.8167458,0.0,160,7,206.0841319421476,600.414045,mp-1078140,Mn(InSe2)2,https://materialsproject.org/materials/mp-1078140,15.798254152235902,13.64266265864156,-8.756034556145751,-14.553212487916662
-4.588299229916667,-550.59590759,2.455244617770339,-0.5071156015059993,0.0,2.9305,61,120,2188.655756286214,3236.10896,mp-1203918,SnH8C2Br3N,https://materialsproject.org/materials/mp-1203918,-22.653756834413517,-5.239478527517162,-34.448901941086284,-30.667521429167813
-9.452457458,-47.26228729,6.7354872230538465,-2.9527551703125,11.9999999,0.0,164,5,90.72316969266217,367.9918,mp-21071,Eu2SO2,https://materialsproject.org/materials/mp-21071,1.2520721550945355,-58.7243969530954,-13.556440515519116,-66.13213620486637
-8.162821252666667,-489.76927516,5.166627777975833,-3.81346730525,0.0,4.3796,14,60,968.7930528386256,3014.3182288000007,mp-780409,La4Al2O9,https://materialsproject.org/materials/mp-780409,-11.046128051302132,-59.139618411998676,-19.967892657864986,-58.13384173691704
-7.791100185833334,-654.45241561,4.597707891993125,-3.3941272423412707,0.0,4.1563,33,84,1120.9281876753869,3103.6309600000004,mp-12295,Sr3La2(BO3)4,https://materialsproject.org/materials/mp-12295,-17.785890343656884,-32.56785419896205,-18.336634598608036,-34.388886948539465
-6.4249469,-237.72303530000002,5.8764193453336215,-2.4899886093074324,0.00034189999999999996,0.0,12,37,878.505337902786,3108.9095999999995,mp-1196484,Pr4(ErS2)11,https://materialsproject.org/materials/mp-1196484,8.795258027810526,-3.00297034114078,-5.335831464915222,-14.565760657659947
-4.831722682222223,-43.48550414,3.41913101048594,-1.4764711016810352,0.0,0.4896,160,9,202.9478313751597,417.8795,mp-551690,Rb4CO4,https://materialsproject.org/materials/mp-551690,-0.5607036385658125,-32.707040399334524,-2.0088626309462727,-35.07290264134653
-3.222649958333333,-116.0153985,3.68558248352238,-0.3780106582276959,1.47e-05,1.261,64,36,1182.832738876326,2625.30872104,mp-17707,Cs3Na2SnP3,https://materialsproject.org/materials/mp-17707,-4.0538804163195445,-24.73113355709173,-24.172889871240077,-32.80124222990972
-2.994943017,-59.89886034,4.371662478929088,-0.7028809511379311,2.5e-07,0.6675999999999997,62,20,841.3271482596896,2214.9424,mp-2095,Rb2Te3,https://materialsproject.org/materials/mp-2095,-2.9561692257677983,-7.7094891412390325,-24.445145905144976,-23.19868055031323
-3.0674000165,-61.34800033,3.629821406448732,-1.1022628885,0.0,2.9371,11,20,578.9317329890623,1265.504,mp-28327,LiGaBr3,https://materialsproject.org/materials/mp-28327,-6.621904841484642,-3.0886286938137184,-32.27193715488175,-47.38910314468875
-2.567019013636364,-56.474418299999996,6.1306955629355215,0.003316627272727211,7.05e-06,0.0,167,22,542.3924051971871,2002.5080000000007,mp-1191566,Zn6Sb5,https://materialsproject.org/materials/mp-1191566,21.185955516107636,7.88579891582651,5.9352512023254835,-7.958960189692219
-5.138856607857143,-71.94399251,5.430042132487071,-1.5138307887500009,4.00000005,0.0,227,14,324.26742535021975,1060.37,mp-5643,Yb2FeS4,https://materialsproject.org/materials/mp-5643,11.982487129792045,6.755615857928892,-23.140986066527976,-78.54651273883779
-3.6117320863157896,-274.49163856,3.788103581787532,-0.6349932076672149,0.0,0.9520000000000001,62,76,2361.21966848163,5386.5308,mp-570836,K5Ag2(AsSe3)3,https://materialsproject.org/materials/mp-570836,-4.830936411062479,-1.5642062591629198,-31.890845693956052,-38.18037329557437
-3.967697657250001,-158.70790629,3.898649705698308,-0.8416105229630002,0.0,1.3980000000000001,62,40,1437.5793960004248,3375.1802,mp-557702,K2RuI5NO,https://materialsproject.org/materials/mp-557702,0.8092869816242897,0.0191845191564571,-32.21927071340336,-31.002313324193434
-5.7977997142857145,-81.169196,3.7145901028349306,-1.6067129326785716,4.0000021,0.0,74,14,319.95215662813274,715.72609,mp-1246440,SmMgMnS4,https://materialsproject.org/materials/mp-1246440,12.314484976236653,8.013142966578569,-23.796983870485764,-79.09391604411455
-3.9075180475,-31.26014438,5.1825098223384805,-0.7993796111979172,1.275e-06,0.3653000000000004,14,8,188.25238285975024,587.5319999999998,mp-630528,InS,https://materialsproject.org/materials/mp-630528,16.506033057739412,10.20510910221482,-6.706239851786039,-14.892189461073839
-6.6688940893333335,-100.03341134,5.341649442708487,-3.0751337260000002,0.0,2.693,225,15,324.28992710455975,1043.1812,mp-755556,Ba6ZrO8,https://materialsproject.org/materials/mp-755556,3.7171715571248343,-60.54189307967656,-26.592982670324012,-70.11299925593094
-7.2179112639560445,-656.82992502,3.014899715059677,-3.3314426639011003,1.5e-06,5.099,146,91,1178.4937768263267,2139.691068,mp-1228644,Ca19Mg2(PO4)14,https://materialsproject.org/materials/mp-1228644,-18.633387290316357,24.03780740470346,-12.861212546779322,15.330247822798956
-6.5786195880232565,-565.76128457,2.6214852178036305,-2.6008715649210967,11.99596605,0.0,2,86,1229.4318697641318,1940.898344,mp-1204649,Ca8P6O29,https://materialsproject.org/materials/mp-1204649,-53.206267273260174,18.891069756572865,-29.688503528143077,13.986459475136774
-4.9362605925,-19.74504237,4.613378045271917,-0.6778510583485993,4.0000002,0.0,119,4,124.4540940662338,345.76349689999995,mp-1207359,CsMnSe2,https://materialsproject.org/materials/mp-1207359,-5.5868929149405036,-3.7458357816180716,-12.200930519491795,-67.22243027890175
-6.636907264069767,-570.77402471,3.2222307997293216,-2.787683572556202,0.0,3.7539,13,86,1254.4346051993532,2434.1962000000008,mp-1195894,K9Li3Nd3(BO3)7,https://materialsproject.org/materials/mp-1195894,-23.2917434359241,-1.7992756722754737,-33.61567540858215,-35.18103466765318
-5.3942425825,-21.57697033,4.506373003364542,-2.1760719581562507,0.0,2.2856,166,4,91.98159400825381,249.61976928,mp-999490,NaDyS2,https://materialsproject.org/materials/mp-999490,14.341995335498137,6.705033803004269,-25.45268625022457,-76.67067853438876
-5.784244016428572,-80.97941623,5.072426948305675,-2.253252804464286,0.00010815,1.4859999999999998,36,14,307.99601170790663,940.8314,mp-1217702,Tb2MgS4,https://materialsproject.org/materials/mp-1217702,12.285037711288474,5.4758309666620875,-6.487453376618637,-17.158479885891644
-4.812472744375,-76.99956391,6.998870477918008,-1.209193670338542,0.0,1.3001,19,16,406.4594586884764,1713.1527999999996,mp-1181462,DyAgSe2,https://materialsproject.org/materials/mp-1181462,27.58272380599297,-0.027684789330142748,13.542964500111193,5.300771516300823
-3.42149521,-61.58691378,4.071185474655159,-1.2585024626293106,1e-07,2.8432,72,18,481.5367516868492,1180.5958076000004,mp-505633,Cs2Zn3S4,https://materialsproject.org/materials/mp-505633,-7.488879509700941,-11.0363297032555,-19.93803169802708,-53.48987041779859
-6.516578198333334,-39.09946919,7.56774999279513,-3.3657849100841672,0.0,1.3244999999999996,129,6,95.80994989669847,436.64480639999994,mp-10932,ErSF,https://materialsproject.org/materials/mp-10932,14.778469643314441,-4.34319203887232,3.989561216061367,-10.499181884805207
-6.60327355,-396.196413,5.939160559947486,-2.442122128437501,0.930517625,0.0,62,60,1359.6375821514046,4862.942520000001,mp-683985,CeTmS3,https://materialsproject.org/materials/mp-683985,12.46730350073433,-6.305553684785539,-3.2385067064170827,-13.199958885038251
-7.62078822578125,-487.73044645,2.827426760651341,-2.9674866899427084,0.0,5.2256,14,64,725.0987928446215,1234.63747712,mp-561514,NaSrB5O9,https://materialsproject.org/materials/mp-561514,-24.77461840941252,-1.8638035334602927,-33.45795343048309,-34.2910215326516
-4.74928735625,-37.99429885,4.664171851396385,-1.8202890615475,7.25e-06,0.0,129,8,182.24452381627663,511.89388360000004,mp-1078453,BaAlGeF,https://materialsproject.org/materials/mp-1078453,18.253216942749514,-37.29221556075722,2.1956572752376053,-57.89519527584737
-3.974804463913044,-91.42050267,3.579219966334989,-1.0810759543804351,5.2e-06,1.2873,12,23,514.957978941362,1109.96961568,mp-1220788,Na6Cd(SnS3)4,https://materialsproject.org/materials/mp-1220788,-3.970736677357424,2.5486819330111703,-24.661823183710624,-75.47052799794214
-4.2224710825,-50.66965299,7.204340397530937,0.1708625933333329,2.1741898999999996,0.0,164,12,289.66776328741923,1256.7396,mp-29659,FeAgTe2,https://materialsproject.org/materials/mp-29659,32.621984178532124,-7.8252037537915315,17.309267198223093,-16.258366175503312
-3.1348012596428565,-87.77443527,5.478756364868997,-0.1634838217857144,4.51e-05,1.0202999999999998,2,28,1119.9297848991248,3695.0787,mp-1193838,Te8IrI5,https://materialsproject.org/materials/mp-1193838,14.117950040877115,0.36482654453705976,-2.083519919883984,-18.499215159398165
-4.818281567608696,-221.64095211,6.603020235717554,0.0808782128260868,5.98665705,0.0,2,46,1083.6745660451127,4309.1579999999985,mp-695001,V6Cu5Te12,https://materialsproject.org/materials/mp-695001,31.91111995122745,-7.026187663435553,3.2655694286300108,-21.726528409418368
-5.2144784711842105,-396.30036381,4.100577107871049,-2.262015789660018,0.0,0.6789000000000001,15,76,2251.9617515050736,5561.051311400001,mp-571397,Cs3Tb10C4Cl21,https://materialsproject.org/materials/mp-571397,-1.3794671108261836,3.6964511486415916,-31.258316690704884,-29.767708903774853
-7.211950565909091,-158.66291245,4.7522570898147665,-3.1674664464393936,0.0,4.1698,167,22,370.1064410616111,1059.1988,mp-755417,Ba3(BO3)2,https://materialsproject.org/materials/mp-755417,-23.950558085321422,-23.79979084725493,-14.894718771185932,-10.680797509477364
-8.32769414725,-333.10776589,6.352911582411107,-2.6474971950000006,20.9326313,2.7177,217,40,665.2404876281716,2545.085600000001,mp-505046,Gd3Sb5O12,https://materialsproject.org/materials/mp-505046,-18.497264478889075,-67.00663890146244,-6.6377614054460095,-67.42850159240218
-6.597895993333334,-39.58737596,5.936393355600028,-3.381207912584168,0.0,1.2363000000000004,129,6,109.2623845185746,390.6108064,mp-5760,NdSF,https://materialsproject.org/materials/mp-5760,14.389636156192687,-5.908058278795982,4.647056702355287,-10.13390400638699
-4.273697337058824,-145.30570946,5.866164340277188,-0.15829191367647116,0.0,0.8407,2,34,1324.8569292236314,4680.30458,mp-28464,Re3(TeI)7,https://materialsproject.org/materials/mp-28464,19.24882173267145,5.479312036333626,14.25892906164276,-10.107604409773613
-5.780692792000001,-28.90346396,6.01550612198626,-0.12831537799999992,7.6967281000000005,0.0,139,5,133.77686670273354,484.62309000000005,mp-22679,Ba(MnSn)2,https://materialsproject.org/materials/mp-22679,9.767068983246787,-33.33887383950076,6.262230933691613,-54.56296549535615
-6.970324831000001,-139.40649662,6.465039099722945,-4.076061659126252,0.0,3.5039,6,20,305.2067276425165,1188.272832,mp-1219205,Sm3SOF5,https://materialsproject.org/materials/mp-1219205,-12.363060676571072,-32.66987810087759,-25.196079551546887,-43.43499981977891
-3.0410680485,-121.64272194,4.288325627880933,-0.42583980898275897,1.25e-07,1.0868000000000002,62,40,1793.7847019316916,4632.4312304,mp-29372,Cs2GaSb2,https://materialsproject.org/materials/mp-29372,-6.686038060862228,-13.088641897916714,-40.17244447881636,-14.515180971365485