energy_per_atom,energy,density,formation_energy_per_atom,total_magnetization,band_gap,sgr,num_sites,cell_volume,weight,mp_id,formula,URL,tsne_cry_0,tsne_cry_1,tsne_xrd_0,tsne_xrd_1
-8.88828514,-35.55314056,8.886514264402775,0.35746121062499897,2e-06,0.0,166,4,42.260646060673935,226.1614,mp-999259,RuC,https://materialsproject.org/materials/mp-999259,28.68216867666945,56.59814382805501,83.88364086796874,14.262256550748345
-5.076280220666666,-304.57681324,4.626055519257237,-1.3479911063653325,9.00000045,0.3199000000000001,1,60,548.07055375104,1526.8564900000001,mp-759369,Li6MnNi7O16,https://materialsproject.org/materials/mp-759369,8.524972618737545,79.28146902053345,22.991844038937398,87.12111418385594
-6.036703373333333,-72.44044048,4.314093291027649,-1.2868947350799995,6.0000007,1.1944,12,12,138.4648796137623,359.73283,mp-753620,MnCo3O8,https://materialsproject.org/materials/mp-753620,4.423445738608481,73.7430164000491,18.454591866528595,88.18634770566271
-5.9267740500000015,-106.68193290000002,4.351045989197109,-1.2311819469444452,3.0,0.459,12,18,205.5729705557243,538.654875,mp-756950,CrCo5O12,https://materialsproject.org/materials/mp-756950,4.307571494109652,74.29814718144044,18.567656867797687,88.31985301918542
-4.77820441090909,-105.12049704,4.401481647644958,-1.140276602954546,2.0000001,0.3897000000000004,41,22,215.76617018399395,571.9172,mp-773252,Li2(NiO2)3,https://materialsproject.org/materials/mp-773252,7.261847789260909,75.64995117703296,18.504576883016163,89.10517580431944
-4.812622898181818,-52.93885188,4.647611057615572,-1.174695090227273,2.0000004000000002,0.3359000000000001,2,11,102.1697842692027,285.9586,mp-758095,Li2(NiO2)3,https://materialsproject.org/materials/mp-758095,7.030778426145593,77.93042389107848,21.51450890653689,88.31498900974363
-5.844786606153847,-75.98222588,4.8255838896005185,-1.5094301561538468,1.9999999,0.0,166,13,133.52662120042024,388.03298,mvc-11656,Mg(CoO2)4,https://materialsproject.org/materials/mvc-11656,6.051340586162716,76.77088456956302,20.511447268186625,89.1653683881177
-4.987107010454545,-109.71635423,4.441698663098415,-1.253153093863636,6.0000003,0.0,5,22,212.74765141018622,569.0688,mp-771207,Li4FeNi5O12,https://materialsproject.org/materials/mp-771207,7.29431845083058,75.53824944045925,18.339740295010888,89.07710054630172
-5.524607876875,-176.78745206,4.393692379626908,-1.7294092115624995,17.9999986,0.0,166,32,276.2688551728055,730.991765,mp-1175466,Li9Co7O16,https://materialsproject.org/materials/mp-1175466,9.181246749666881,84.07297421064892,11.960980111872239,94.63177494519512
-5.608036592413793,-162.63306118,4.389320289939971,-1.5028482810344834,16.0246229,0.0,1,29,288.3357661878865,762.1609599999998,mp-765274,Li5(CoO2)8,https://materialsproject.org/materials/mp-765274,7.4253573997484565,75.74669169309772,18.141295516412317,89.03046143338504
-6.000618329583332,-288.02967982,4.590491050656679,-1.2508096913299989,5.9999998,0.9386,212,48,520.5111188261492,1438.93132,mp-867992,MnCo3O8,https://materialsproject.org/materials/mp-867992,4.337568381578727,74.16104827614215,19.17530025918026,87.33648438154111
-4.8907713600000005,-63.58002768,4.6244085285766365,-1.054411174615385,1.9995866000000002,0.7629000000000001,166,13,138.9909979382783,387.0738,mp-756552,Mg(NiO2)4,https://materialsproject.org/materials/mp-756552,6.9998633703056425,77.76785563646737,21.306082879897748,86.19969639846907
-6.6505908950000014,-159.61418148,3.660987895028513,-2.5758185302083336,8.9999994,3.3583,12,24,205.35193560879242,452.7391,mp-752502,Li7Cr3(SiO6)2,https://materialsproject.org/materials/mp-752502,5.585115436569115,83.42512637868154,13.336688275162713,95.200565267637
-5.635070210625,-90.16112337,4.624052480027494,-1.7051935843750003,8.9846963,0.0815999999999999,166,16,139.47930977470898,388.403785,mp-765603,Li4FeCo3O8,https://materialsproject.org/materials/mp-765603,11.464266330565733,81.10754983107176,23.074527681796337,85.20957598642096
-5.336294515,-85.38071224,4.871998099199606,-1.5791829306249996,1.99348265,0.0,74,16,136.57788625143957,400.71759,mp-753366,Li2CoCuO4,https://materialsproject.org/materials/mp-753366,10.508506902596562,80.10331813984494,23.36748665752429,85.28130189709596
-5.2304439339473685,-198.75686949,4.586964392003291,-1.4498403791294736,6.99998715,0.0,2,38,345.70008318341087,954.93929,mp-758663,Li4Mn(Ni2O5)2,https://materialsproject.org/materials/mp-758663,9.340573503022755,79.35336699083791,22.999722583891245,85.82290853347993
-5.686469085,-34.11881451,2.1172586005652168,-1.123527510833334,0.00096875,0.0,166,6,142.6336184368554,181.86399,mp-550206,CoO2,https://materialsproject.org/materials/mp-550206,4.290728632091212,74.39255653979531,18.997762275918017,89.0470735935093
-4.7237670870000015,-47.23767087,4.604797442707731,-0.9128437632500004,0.9999996999999999,0.8328000000000002,12,10,100.61672058579428,279.0176,mp-1222821,Li(NiO2)3,https://materialsproject.org/materials/mp-1222821,6.280123797152398,77.39455865259984,20.93912681263821,88.65229201765354
-6.151903186666668,-110.73425736,4.3603470095121,-1.339805527051111,4.99999955,0.05259999999999998,64,18,204.7333753613536,537.60167,mp-759777,Mn(CoO3)2,https://materialsproject.org/materials/mp-759777,4.506186614860542,73.47292864506917,18.468348440594735,88.02392828511854
-4.652028970625,-74.43246353,4.601646324276262,-0.7618160354687502,0.9999998999999999,0.0,2,16,166.13955989203953,460.40199999999993,mp-1222991,Li(NiO2)5,https://materialsproject.org/materials/mp-1222991,5.949070632425995,77.08080482571992,20.669444751389086,88.51358560335579
-5.920668470833332,-71.04802165,4.300835195771489,-1.1941147200000006,2.0198888999999998,0.0,227,12,135.66486757303988,351.3752,mp-540003,FeO2,https://materialsproject.org/materials/mp-540003,5.070766500995468,72.33477068334135,17.85441682085465,85.88601882906507
-5.695636962413793,-330.34694382,4.6532279215953976,-1.5904486510344822,1.00000005,0.33329999999999993,1,58,543.9656299534785,1524.32192,mp-766589,Li5(CoO2)8,https://materialsproject.org/materials/mp-766589,6.230210392886808,76.56190145041705,20.152169729679283,89.40073659375588
-6.078626658392857,-340.40309287,4.540797994216788,-1.724415679107143,0.500000375,0.7970999999999999,155,56,542.2102435702794,1482.69154,mp-1178130,Li2CrCo3O8,https://materialsproject.org/materials/mp-1178130,2.2588794677254858,69.20714306746325,18.44037884041364,85.26380260276295
-4.8476723036170215,-227.84059827,4.641444139872259,-1.3201671653191491,11.000001699999999,0.0,12,47,416.67184234993766,1164.6574,mp-38676,Li11(NiO2)12,https://materialsproject.org/materials/mp-38676,11.064332197829614,80.60501813216302,23.258604792658065,85.30141001459307
-6.010733027142857,-84.15026238,4.533877729645628,-1.6669009586399994,3.9999817,0.0,12,14,136.83695241301848,373.61483,mp-755265,Li2MnCo3O8,https://materialsproject.org/materials/mp-755265,5.768494593741825,77.16807740387289,20.88381941767783,89.25431472952873
-5.335486106428571,-74.69680549,4.528872130384427,-1.3391692936399997,0.9999994000000001,0.0,166,14,136.7244263988774,372.895445,mp-756193,Li2MnNi3O8,https://materialsproject.org/materials/mp-756193,2.1176852700166333,69.00696064545852,18.05902791573436,84.87299946186731
-5.109929362916667,-122.63830471,5.159754410468495,-1.4099245035416659,2.9999997000000005,0.0,5,24,205.3345208801244,638.0311899999998,mp-765625,Li5Co2Ni5O12,https://materialsproject.org/materials/mp-765625,10.749209055539843,79.58801508820001,28.29858524982216,77.85883400337359
-5.691337476666668,-34.14802486,4.5465316228036565,-1.1283959025000003,2e-07,1.2248,166,6,66.42255688940827,181.86399,mp-25234,CoO2,https://materialsproject.org/materials/mp-25234,4.283390330311712,74.45627025417802,19.85626750004936,88.05936370897184
-5.914336796111113,-106.45806233,4.514331483273828,-1.2268171792200002,3.9999903,0.0,12,18,199.21945627653437,541.59682,mp-755620,MnCo5O12,https://materialsproject.org/materials/mp-755620,4.297488643254612,74.34442057264573,18.73130728239959,88.15610904241215
-5.24131186,-157.23935580000003,4.539376136750502,-1.4990651375555557,5.9999996,0.2958999999999996,1,30,276.6813370271103,756.3572,mp-758326,Li6TiNi7O16,https://materialsproject.org/materials/mp-758326,8.330986541394157,79.01689417059427,22.603180939023808,87.22697245334061
-5.304555622857143,-37.13188936,4.7119251525466535,-1.2832813335714297,0.974384,0.0,10,7,68.16275497386239,193.41779499999998,mp-760397,LiCoCuO4,https://materialsproject.org/materials/mp-760397,6.974223941244245,77.59919977686641,21.43407875882714,88.2899678852027
-4.85309625625,-116.47431015,4.4144998586126265,-1.4304265377083336,3.0000002999999995,0.0,2,24,200.88471831229685,534.0468,mp-756913,Li7Ni5O12,https://materialsproject.org/materials/mp-756913,6.014270091052711,81.33550274973662,15.782609590273323,93.263148192451
-5.307406735,-74.30369429,4.7409403844736815,-1.2861324457142858,1.0,0.0,2,14,135.49117836623995,386.83558999999997,mp-754020,LiCoCuO4,https://materialsproject.org/materials/mp-754020,8.75936179118745,79.11146394656292,18.753287487725306,85.26837642627649
-6.448902061666666,-77.38682474,4.3331376368016405,-1.460504116906667,8.9999999,0.8303999999999998,166,12,134.70239421360756,351.5027350000001,mp-757044,Mn3NiO8,https://materialsproject.org/materials/mp-757044,4.817066192210464,72.74405586106823,17.980122558773246,86.06919391348524
-4.730126575185184,-127.71341753,4.584050800185622,-0.9426964696296289,3.0,0.0,2,27,270.36369539526885,746.3606,mp-694965,Li3(NiO2)8,https://materialsproject.org/materials/mp-694965,6.398367262044573,77.51746604407248,21.094034144442645,88.69295888552784
-6.454679207142857,-45.18275445,7.395266284259645,0.25538400469428624,0.0041712,0.0,221,7,62.15148004262326,276.7937,mp-1094084,Ni4N3,https://materialsproject.org/materials/mp-1094084,30.094787032391533,57.62155590566013,85.55803047555162,16.395190346171535
-4.9749775225000015,-119.39946054,4.5476264583030055,-1.413640233541667,4.9999997,0.19520000000000026,2,24,213.9886903822356,586.038995,mp-867666,Li6CoNi5O12,https://materialsproject.org/materials/mp-867666,7.400280894433276,75.44886410624656,17.879531848155867,89.05797617879897
-5.736637533888889,-103.25947561,4.269794248800888,-1.1464272636111117,9.0000632,0.0,12,18,210.98175819311825,542.503775,mp-756471,FeCo5O12,https://materialsproject.org/materials/mp-756471,4.583835748234684,73.23975459333691,18.329899978873048,88.16173314090264
-4.91410950381579,-373.47232229,4.601392986233186,-1.294204564736843,7.0000008000000005,0.0,6,76,694.8261071331517,1925.3795899999998,mp-850772,Li8CoNi9O20,https://materialsproject.org/materials/mp-850772,8.930168265088785,78.521747212381,22.841933477431922,86.34807527215223
-6.45105055875,-309.65042682,4.325629492973771,-1.4626526139899998,8.999999825,1.1403,212,48,539.7448071614705,1406.01094,mp-775810,Mn3NiO8,https://materialsproject.org/materials/mp-775810,4.847634556572281,72.68860929231832,18.023284815490914,86.09540120574165
-4.834120341,-96.68240682,4.727976415348678,-1.4806487157470003,5.9999957,0.04920000000000036,1,20,172.50480781748485,491.1650032,mp-764733,Li5Ni5O9F,https://materialsproject.org/materials/mp-764733,10.013233255567927,79.96024839866813,23.44179283263525,85.49958892891979
-5.83310991875,-186.6595174,4.616835517027526,-1.8878946509375003,14.9996934,0.0,10,32,278.2839508692508,773.719375,mp-765504,Li8Fe3Co5O16,https://materialsproject.org/materials/mp-765504,10.917150955128227,80.65211119370134,23.229041917433605,85.20087836146864
-6.03357253,-72.40287036,4.474281838819422,-1.2837638917466652,5.999998000000001,0.7133000000000002,166,12,133.50755041892913,359.73283,mp-773602,MnCo3O8,https://materialsproject.org/materials/mp-773602,4.491901013159024,73.51908529122281,18.3220195329917,86.6321621143572
-5.717646155666668,-171.52938467,4.445320130670024,-1.1383433638333345,12.999999,0.3526,2,30,338.5207733595552,906.231755,mp-771048,FeCo9O20,https://materialsproject.org/materials/mp-771048,4.308464386104869,74.27422421741348,20.75359563444629,88.63713136152883
-8.478779515,-67.83023612,6.849032845797657,-0.4552435011899991,0.0003822,0.0,194,8,66.86157594914043,275.77619,mp-1245739,VCoN2,https://materialsproject.org/materials/mp-1245739,29.87170752342731,58.022725962406646,85.14704554382291,19.070172602600515
-4.85816747871795,-189.46853167,4.708483707082758,-1.3237412614102562,8.9999993,0.3567999999999998,2,39,341.87473094644537,969.391,mp-769454,Li9(NiO2)10,https://materialsproject.org/materials/mp-769454,8.694945829544496,79.73501006102147,23.07114172117679,87.06763758122486
-5.6874794333333325,-34.1248766,4.0788011025238085,-1.1245378591666677,1.0,1.2606,39,6,74.03946595442177,181.86399,mp-754748,CoO2,https://materialsproject.org/materials/mp-754748,4.279887117163162,74.57283131194056,19.275777181415968,89.50280165712299
-5.374925977999999,-80.62388967,4.546924815833521,-1.451094046,11.6817645,0.0,166,15,140.35062202456427,384.311185,mp-753764,Li3Co3NiO8,https://materialsproject.org/materials/mp-753764,11.52007480082098,81.00106711603763,22.619081413103405,85.06565626010664
-6.176139965,-111.17051937,4.300915861188601,-1.4653576678703706,5.000000900000001,0.0,12,18,206.3748619877578,534.5257750000002,mp-756754,TiCo5O12,https://materialsproject.org/materials/mp-756754,4.429058789925522,73.73409180824326,18.44376008034029,88.13717929544863
-5.6044939614999985,-112.08987923,4.85105959533238,-1.7052946183750008,0.8,0.39659999999999984,2,20,167.51178373030194,489.364975,mp-867664,LiCoO2,https://materialsproject.org/materials/mp-867664,4.2884570588795015,80.90155953780369,14.406421799545484,92.25348243647707
-5.681710306666666,-17.04513092,4.4399989831628215,-1.1187687324999989,1.0000001,1.1238,166,3,34.00814465390329,90.931995,mp-1062939,CoO2,https://materialsproject.org/materials/mp-1062939,4.279058337796179,74.56314957500942,20.08146524915933,89.70640321625919
-7.7317368375,-30.92694735,3.3297187045488603,-1.148843300356666,0.0006564,3.0483,115,4,32.81758605009496,65.8059386,mp-1008557,AlBN2,https://materialsproject.org/materials/mp-1008557,6.467814946377847,58.06154697122907,59.71165586291002,35.54283092587017
-4.77656405,-315.2532273,5.039890994459907,-1.0610778861363634,7.0009020333333325,0.03909999999999991,1,66,616.4584035644398,1871.0088,mp-1177647,Li3Ni7O12,https://materialsproject.org/materials/mp-1177647,10.703742470612912,79.28508120794619,28.242657220080986,77.89788513602387
-6.24889933,-137.47578526,4.477452841973691,-1.8628969099036368,9.9999996,0.0,2,22,208.19374257310776,561.3705199999998,mp-755918,Li4Mn3(CoO4)3,https://materialsproject.org/materials/mp-755918,8.424578729906889,77.2038064918579,21.50929970020114,87.45535740478209
-5.632852285499999,-225.31409142,4.645630075568646,-1.7213820291250002,20.9999999,0.1166999999999998,1,40,348.73444438713915,975.641755,mp-764262,Li10FeCo9O20,https://materialsproject.org/materials/mp-764262,11.378384694733308,80.96450003475441,22.95668243506602,85.26594438082606
-5.686869951666666,-34.12121971,4.185623951778036,-1.1239283775000004,1.0,1.2249,166,6,72.14987749601455,181.86399,mp-754720,CoO2,https://materialsproject.org/materials/mp-754720,4.2805440443322444,74.58732620278009,19.378468195382105,89.5470545518927
-6.0610511083333325,-72.7326133,4.287942308373858,-1.2991337408333337,5.0000445,0.7265000000000001,166,12,138.17004778763788,356.790885,mp-753507,CrCo3O8,https://materialsproject.org/materials/mp-753507,4.6221311139400925,73.16340444993358,20.53752271710898,86.26424797627392
-5.684013004098362,-346.72479325,4.834275483420393,-1.1100377780327866,20.8240778,0.0,82,61,644.9329243635083,1877.573095,mp-850026,Co21O40,https://materialsproject.org/materials/mp-850026,4.2570645216650025,76.10762486565635,17.36760226140095,92.26418202722068
-6.1839893394444445,-111.31180811,4.249174159538588,-1.3557467075000005,4.00008755,0.6454,64,18,207.7905255942741,531.71778,mp-755124,Cr(CoO3)2,https://materialsproject.org/materials/mp-755124,4.6210544124093085,73.16745776004142,18.218078090991405,87.93997234438109
-5.686663930000001,-17.05999179,3.1399583085355105,-1.1237223558333345,1.0000003,1.3682,166,3,48.088577250253365,90.931995,mvc-13108,CoO2,https://materialsproject.org/materials/mvc-13108,4.279994736440389,74.61179906880228,19.480310154219985,89.70606143799343
-6.153215648888889,-55.37894084,4.404192398566913,-1.3411179892733334,4.9999989000000005,1.2176,12,9,101.34758886722076,268.800835,mp-763057,Mn(CoO3)2,https://materialsproject.org/materials/mp-763057,4.6029315654841865,73.2070733340427,18.04447191790085,86.44267961709515
-5.5218579603125,-176.69945473,4.415249049010975,-1.726659295,13.449327599999998,0.0,12,32,274.920021549613,730.991765,mp-1175571,Li9Co7O16,https://materialsproject.org/materials/mp-1175571,7.387555853563259,84.11908741132405,12.532906999897476,94.19291507217336
-5.345639712727274,-117.60407368,4.542007714034535,-1.412850475681819,4.6566602,0.0,2,22,209.4412105784112,572.8763799999998,mp-754376,Li2Co2NiO6,https://materialsproject.org/materials/mp-754376,9.012993654658038,78.10790035879323,21.757744691069867,85.81324819508603
-5.845690612727273,-128.60519348,4.46691364734195,-1.698538407045455,9.0000009,0.5225999999999997,2,22,209.6964125280447,564.091385,mp-997554,Li4Fe3(CoO4)3,https://materialsproject.org/materials/mp-997554,8.785912187526918,77.3193544855213,21.448659706822518,86.27780190103907
-6.192158786666668,-55.72942908,4.362215166601152,-1.3639161547222218,4.0000222,0.3607,12,9,101.20295517656434,265.85889,mp-752462,Cr(CoO3)2,https://materialsproject.org/materials/mp-752462,4.568918252378606,73.30980206320372,18.243864092600887,86.63139006738872
-4.732351494705882,-80.44997541,4.29715413974066,-0.9587409292647058,2.0000001,0.4642,2,17,180.59424245311226,467.343,mp-762387,Li2(NiO2)5,https://materialsproject.org/materials/mp-762387,6.556295222487766,75.72589325583054,18.945140640348374,89.51023033820441
-5.67856788,-34.07140728,4.786926248757031,-1.115626305833333,0.0,0.0,164,6,63.08688282874309,181.86399,mp-32686,CoO2,https://materialsproject.org/materials/mp-32686,4.281577060058623,74.63092199713483,19.59894565692598,88.28534885174444
-5.503676900555557,-99.06618421,4.528324453853842,-1.0308318741666678,1.0,1.1467,12,18,199.9809391674037,545.352175,mp-773511,Co5NiO12,https://materialsproject.org/materials/mp-773511,4.281373007004587,74.64018252029503,18.86464837705569,88.28679548774441
-5.9967802,-71.96136240000001,4.623458207281955,-1.2469715617466657,5.9999597,1.0111,166,12,129.1999151725553,359.73283,mp-753551,MnCo3O8,https://materialsproject.org/materials/mp-753551,4.295975418235093,74.4556840655065,19.356131074442995,87.64836842118532
-4.927243234285714,-34.49070264,6.055318786143705,0.5103661975514291,0.0119947,0.0,221,7,65.7048247252134,239.5991,mp-1147674,Li(CuN)3,https://materialsproject.org/materials/mp-1147674,27.11425965701838,56.711457034366035,58.003832200549795,34.06083683318841
-4.832247173333333,-72.48370759999999,4.6841584314285445,-1.232762813333334,2.9999998,0.03990000000000027,12,15,135.98369240675171,383.5918,mp-754896,Li3(NiO2)4,https://materialsproject.org/materials/mp-754896,8.725732881453267,79.87462445781729,19.30393956107913,85.57874712795356
-5.685171571666667,-34.11102943,4.251165713196295,-1.1222299975,0.99999985,1.2325,194,6,71.03751670459175,181.86399,mvc-11564,CoO2,https://materialsproject.org/materials/mvc-11564,4.282310149122137,74.64520924594058,19.131084298568997,89.47676744663242
-5.050282925,-181.8101853,4.476341537661146,-1.2629536665277783,6.9922183,0.0,10,36,349.7665278931555,942.8712,mp-757287,Li3Fe(Ni2O5)2,https://materialsproject.org/materials/mp-757287,9.250275297357037,78.2052579479072,22.08252416349029,85.42433026383716
-4.909487896538462,-255.29337062,4.6463023061241335,-1.4543753553365388,10.9999999,0.0,2,52,441.31982957196436,1234.8432,mp-769522,Li13Mg(Ni6O13)2,https://materialsproject.org/materials/mp-769522,8.569638664181943,80.04662700599023,23.12470705034825,87.20916431579248