energy_per_atom,energy,density,formation_energy_per_atom,total_magnetization,band_gap,sgr,num_sites,cell_volume,weight,mp_id,formula,URL,tsne_cry_0,tsne_cry_1,tsne_xrd_0,tsne_xrd_1
-3.5605240725,-42.72628887,4.956588261809581,-0.3616877584201384,0.0,1.2999,9,12,294.5005759826395,879.0627999999998,mp-29163,Ag2TeS3,https://materialsproject.org/materials/mp-29163,-1.458794828121646,-3.8544411862254697,-14.681300295101686,-68.53974997389028
-6.368136858571428,-44.57695801,5.928016036966747,-0.3432881924553572,9.9999996,0.0,12,7,159.41700296438196,569.1083,mp-1226346,Cr3(TeSe)2,https://materialsproject.org/materials/mp-1226346,19.37113585739188,10.364799104198353,26.874738332608512,-41.51220914754036
-2.938057955,-41.13281137,3.337036439325204,-1.1463684072171427,7.55e-06,0.0,123,14,338.61244670418546,680.4790771199998,mp-1147528,Na2Cu(BrCl)2,https://materialsproject.org/materials/mp-1147528,14.928829557086944,10.1683427343473,28.25628538361887,-43.279933544855034
-6.038312455714285,-42.26818719,6.394114352949837,-0.2719160185714285,8.001479400000001,0.0,8,7,172.51198807496795,664.2791,mp-1216577,V2CrTe4,https://materialsproject.org/materials/mp-1216577,20.422982510830906,9.556065607224204,26.931501561919664,-40.139575446492415
-5.949950091428571,-41.64965064,6.397554306514387,-0.6009328676190476,1.0745252,0.0,12,7,170.5494737053649,657.0754999999998,mp-1025219,Ti2VTe4,https://materialsproject.org/materials/mp-1025219,19.910947314485195,9.497345667213411,26.977046079579946,-40.26498230080105
-3.1319400825,-37.58328099,4.524976331332204,-0.8017702602011489,1.5e-07,1.6383,63,12,366.75862712972616,999.4189037999998,mp-23017,CsCu2Br3,https://materialsproject.org/materials/mp-23017,-5.535243619523596,-1.9180863974346545,-33.655371589096326,-47.680962835864776
-4.228644587297297,-312.91969946,4.910789495769426,-0.8684349307742123,4.355e-05,0.6654,1,74,1713.5664747478525,5067.6100000000015,mp-1225003,In10(Sn2S7)3,https://materialsproject.org/materials/mp-1225003,10.865007502217713,-3.877887947626837,-6.535553267653223,-18.9917121274069
-2.853283838611111,-102.71821819,4.376111946973314,-0.5716947685488508,1.988295475,0.01770000000000005,19,36,1247.110144154121,3286.57952,mp-1203472,Rb2Cu2I4O,https://materialsproject.org/materials/mp-1203472,-2.5793629376100986,-1.4902534744293772,-31.29417217910039,-32.17852475030589
-3.8266827068181817,-84.18701955,4.830962929562522,-0.8530100574526526,0.0,1.1220999999999997,31,22,559.809094058278,1628.638,mp-510347,In5S5Br,https://materialsproject.org/materials/mp-510347,-0.14401069954009998,-3.144590447000398,-7.187038806125362,-19.229053797973425
-3.0511411908064514,-189.17075383,3.4779090741374215,-0.16506955596217987,6.325e-05,1.0688,31,62,2314.882687262957,4848.3964,mp-1194699,Rb14ZnGe16,https://materialsproject.org/materials/mp-1194699,-5.932114419406606,-4.184463921238766,-30.509702136901282,-38.524056882028525
-3.8251203525,-30.60096282,3.9779951330999284,-0.4131266193566665,1.4e-06,0.0,11,8,146.36805463657498,350.64,mp-997013,AgClO2,https://materialsproject.org/materials/mp-997013,13.168175548246815,-1.3963972635336228,-7.012083531807744,-18.91309762322733
-2.4742378104545453,-54.43323183,5.351312195360041,-0.21000290642633213,2.5e-07,0.0,63,22,611.3136747739962,1970.0412,mp-1190975,Rb2Zn5Sb4,https://materialsproject.org/materials/mp-1190975,17.43251934320892,3.456568012275896,-2.0269141647334274,-16.844715009876122
-3.331220596875,-53.29952955,4.858689426521717,-0.2748735204525863,3e-07,0.9776000000000002,59,16,605.7769271503579,1772.4858494000002,mp-510341,Cs3Ge4Au,https://materialsproject.org/materials/mp-510341,-5.721724751121521,-3.3100431461248547,-27.84791545325463,-35.932293451961066
-5.2846225125,-84.5539602,5.822347739213675,-0.7335124677083336,1.0785368,0.0,2,16,434.1545439875129,1522.276,mp-1222772,Li(TiTe2)5,https://materialsproject.org/materials/mp-1222772,20.037423289680873,9.774256371190507,28.088098265310997,-40.50135868291717
-4.452827103863637,-587.77317771,2.951013264656975,-0.391334480153918,8.615e-05,1.9817,14,132,2432.633855216731,4323.1352000000015,mp-759330,Rb4Ge9(H3N)5,https://materialsproject.org/materials/mp-759330,-1.6146657334289234,4.118706114650096,-33.0895590514136,-32.86043141011057
-4.2215042460714285,-118.20211889,5.588009722120645,-0.2514689489285712,4.82040105,0.0,62,28,837.7375700395029,2819.13618,mp-653120,Mn(GaTe2)2,https://materialsproject.org/materials/mp-653120,16.543170827293743,10.56703879527162,-4.018770482578302,-14.085028735443885
-4.181346326833332,-250.88077961,4.991347139810312,-0.8580319961354168,0.00020615,0.0,55,60,1366.2028863553885,4106.6140000000005,mp-1212832,In9Sn4S17,https://materialsproject.org/materials/mp-1212832,10.904999617434669,-3.8831871811950047,-6.621313667650571,-18.96482761823043
-4.767703422142857,-200.24354373,4.163142976139159,-1.0266706831758003,5e-08,1.4612000000000005,15,42,1372.885729442026,3441.9664,mp-542013,Rb4Zr3Se14,https://materialsproject.org/materials/mp-542013,7.559049225699379,1.1357243198600528,-1.2336927730654006,-22.183571986359897
-3.731078545,-22.38647127,4.889725423338796,-0.07362172904761917,0.0,0.4173,24,6,148.27263512634883,436.612724,mp-1226754,CdAsP,https://materialsproject.org/materials/mp-1226754,19.97545535701374,22.72723800882186,24.024982326025576,-40.902436226354745
-3.8740382627777774,-139.46537746,4.8193206696421145,-0.4466973531459537,0.0,1.2194000000000005,14,36,1165.3635259679688,3382.1912,mp-4721,RbSb3Se5,https://materialsproject.org/materials/mp-4721,-0.1692342368369638,-1.0898935303265749,-2.4342676571623425,-22.06997475738198
-6.026301043999999,-30.13150522,5.827050007272232,-0.7445301260985218,1.6e-06,0.0,139,5,114.1775294657234,400.6639759,mp-1206405,Cs(PRh)2,https://materialsproject.org/materials/mp-1206405,15.276128655186126,22.3324277299762,24.22659144208149,-40.62017023069095
-3.513577893181818,-77.29871365,5.616386996523072,-0.5285048458759473,2e-07,0.7489999999999997,31,22,620.1721437628518,2097.588,mp-510346,In5Se5Br,https://materialsproject.org/materials/mp-510346,16.44659461263412,2.4494681513853456,-2.239030894350284,-17.48142003204432
-4.3892017019999985,-43.89201702,5.014297265003159,-0.422927450625,0.0,0.09830000000000004,12,10,253.38548706679583,765.1432,mp-1209066,Sb2AsS2,https://materialsproject.org/materials/mp-1209066,-0.1670872996447935,-3.205696950809601,-6.83656753986801,-19.906779059354747
-7.0893172416666665,-42.53590345,3.6354615018446452,-1.4404143390033326,6.5e-07,0.0,12,6,124.57673477072008,272.7391,mp-1206889,YCCl,https://materialsproject.org/materials/mp-1206889,13.211006022381385,-1.5095099224170403,27.794713002128905,-41.61934046953261
-6.006855197999999,-30.03427599,6.056343817625996,-0.30729827400000004,7.6036758,0.0,139,5,134.5473231560769,490.72309,mp-567240,Ba(MnSb)2,https://materialsproject.org/materials/mp-567240,18.6572006688125,-37.53200032095332,20.68471036905532,-40.00970814607438
-5.7915020975,-69.49802517,6.2360461479324245,-2.1718930236197926,0.0,1.2697000000000005,8,12,267.85233813060927,1005.9019999999997,mp-1225577,Er4CdS7,https://materialsproject.org/materials/mp-1225577,10.866121683559527,-3.0351135071115496,-5.1248528803184055,-16.608395408243545
-2.2330117516666665,-13.39807051,3.511477550317636,0.322212335,5.605e-05,0.0,136,6,154.87208700191945,327.502,mp-1094628,MgGa2,https://materialsproject.org/materials/mp-1094628,21.493575527988696,9.185417058543237,23.962181302688226,-40.73525436350383
-3.059966317142857,-42.83952844,4.430965222125746,-0.7955530309104765,0.0,1.1256,64,14,347.7516084663468,927.9368,mp-28557,Ag2PdCl4,https://materialsproject.org/materials/mp-28557,-3.107667257355992,-2.5756484887704763,-29.919905421824,-33.65868688437655
-5.801635884285713,-40.61145119,6.915053222611173,-0.2033641599999996,6.4197425,0.0,12,7,160.44021528126174,668.1279999999998,mp-1025378,V2FeTe4,https://materialsproject.org/materials/mp-1025378,19.431126503676182,10.307858392304443,26.615985471550488,-40.79841070068329
-4.237648876000001,-42.37648876,4.132924161202399,-1.2653209292413792,2.99998195,0.6589999999999998,194,10,340.35764893726434,847.1179037999999,mp-23038,CsVBr3,https://materialsproject.org/materials/mp-23038,-0.6969361791444915,12.99070843889058,-26.539657338372802,-68.7591193994905
-3.5960013928125,-115.07204457,4.204816001301545,-0.9091539855289152,1.96875e-05,1.4736999999999998,15,32,1131.6827467747744,2865.6464,mp-31309,RbInSe2,https://materialsproject.org/materials/mp-31309,-3.195786852059918,-1.4100804554071038,-30.42374543046002,-36.816762785279714
-6.457681349285713,-90.40753889,4.4140781583611695,-1.345921204196428,4.9999996,0.0,227,14,346.6153001201081,921.3797380000001,mp-14928,Sc2MnSe4,https://materialsproject.org/materials/mp-14928,17.84879120153779,11.008068293145865,-21.28584581997356,-73.46513440089203
-7.3288544557142865,-102.60396238,3.9415966125605832,-2.7334172841785715,0.0,3.7206,59,14,214.0234023553214,508.0241400000001,mp-1223532,KLaCO4,https://materialsproject.org/materials/mp-1223532,-17.84824811457584,-31.543019342973746,-8.106945426237633,-21.71767164808982
-5.832369381590909,-256.62425279,4.762090300877144,-2.3380101196704555,7.75e-06,1.8304,31,44,1166.6707231410314,3345.7758,mp-1224251,K3Er7S12,https://materialsproject.org/materials/mp-1224251,12.890512383262546,6.390894778758375,-5.996366953868304,-19.724039101303045
-5.8118762313636365,-255.72255418,4.955400036906814,-2.3303081311265674,1.5e-07,1.9412,31,44,1214.3886427452264,3623.9928,mp-1219776,Rb3Er7S12,https://materialsproject.org/materials/mp-1219776,9.267400808813896,-1.5929246911577024,-6.044898450254117,-19.708608262386395
-3.0655704760000004,-15.32785238,5.030746514796822,-0.5121137405999999,2e-07,0.8298999999999994,119,5,139.70662731497558,423.2533,mp-1223207,KZnCuTe2,https://materialsproject.org/materials/mp-1223207,15.789608987546835,12.074313295936047,-8.234459508101159,-8.249296769910666
-4.865931248333333,-29.19558749,4.4180324382218625,-0.09822193178160887,4.56937375,0.0,129,6,197.07262301238322,524.33169,mp-3165,RbMnSb,https://materialsproject.org/materials/mp-3165,11.765500983132448,0.9688404513938292,0.5844374780551697,-36.75063050937643
-3.8092077028571434,-26.66445392,5.260498986472012,-0.3575968799107144,0.0,0.8464,82,7,192.92187635399085,611.1661999999999,mp-1223893,InAgGeSe4,https://materialsproject.org/materials/mp-1223893,13.974365077585572,14.65028218759159,-16.550034237084922,-73.06659756090481
-3.93557206875,-31.48457655,4.771415179114566,-0.8274336324479172,2.5e-08,1.3814000000000002,58,8,204.471794347254,587.5319999999998,mp-19795,InS,https://materialsproject.org/materials/mp-19795,-0.9038416795119883,-2.00130540795223,-7.743576709806832,-15.013021079921153
-3.877771885,-85.31098147,4.6609333667290755,-0.9382050359308338,0.000708,1.1568999999999994,11,22,548.5578827503666,1539.736,mp-31263,In5S5Cl,https://materialsproject.org/materials/mp-31263,-0.07138956493804596,-3.078152530145789,-7.211097649520098,-19.102736251082092
-5.1940811225,-41.55264898,6.748723931319567,-1.6232362561979168,2.15e-06,0.7565,46,8,170.7431704081439,693.9304,mp-676410,LuAgS2,https://materialsproject.org/materials/mp-676410,18.772296533555185,9.71787034253046,28.777190435050837,-40.92293463251444
-2.9584702785,-59.16940557,3.5357916496966757,-1.2086228787666666,1.15e-06,2.2777,147,20,739.4498592188318,1574.5132,mp-28529,KInBr3,https://materialsproject.org/materials/mp-28529,-0.03423012485989842,-0.6426531204048925,-29.79854123949478,-35.415159756034534
-4.83716692125,-38.69733537,5.407932383775394,-1.4022167880859375,0.00378985,0.0,129,8,181.67433119936672,591.6647999999999,mp-1096855,BaCuSeO,https://materialsproject.org/materials/mp-1096855,-5.157867751623841,-3.653119996952502,-14.92484037850275,-68.98433924865205
-4.71718088875,-188.68723555,4.697254154496873,-0.3382590721874997,4.985583825,0.18320000000000025,6,40,1172.3104878268853,3316.17636,mp-639335,MnSbSe2Br,https://materialsproject.org/materials/mp-639335,16.32967616076791,2.1051293621373297,-2.177472856096988,-17.952988390878176
-5.555735461470588,-188.89500569,3.572453144844395,-0.9216447966770591,3.9999997000000005,0.0,15,34,879.4883602733928,1892.11508,mp-1202214,Nb3Br7N2O5,https://materialsproject.org/materials/mp-1202214,-2.6958446879214306,-1.802807608679959,-33.21431522943813,-27.99854279711367
-5.976739102857144,-41.83717372,6.4418067078166645,-0.5480792333333336,2.458724,0.0,12,7,169.64972313171222,658.1301,mp-1025345,Ti2CrTe4,https://materialsproject.org/materials/mp-1025345,19.898646569531127,9.464067587548604,26.969575655571195,-40.294666356844495
-5.899160898571429,-41.29412629,6.38626707396973,-0.7190119585714295,0.2528812,0.0,12,7,170.05148392955968,654.001,mp-15669,Ti3Te4,https://materialsproject.org/materials/mp-15669,19.736797669299285,9.531680801977664,26.822230850243866,-40.209251934179285
-4.008190555,-64.13104888,5.862355425956397,-0.2067812267968749,0.0,0.6351999999999993,62,16,388.881349649699,1372.904,mp-20331,CuSbSe2,https://materialsproject.org/materials/mp-20331,16.561530082682903,11.113542708194725,14.39649021283134,-46.94869332158843
-5.9919281975,-167.77398953,6.631963071527339,-2.514375548392858,0.000227875,1.4787999999999997,62,28,640.1507988497798,2556.67368,mp-1192415,Yb(TmS2)2,https://materialsproject.org/materials/mp-1192415,10.344627514168874,-3.1207797848166514,-5.095676380703278,-16.220533425187607
-5.8112803775,-69.73536453,5.980049659570025,-2.178993735286459,3.14e-05,1.2542,8,12,274.0327611872151,986.8660000000001,mp-1225330,Dy4CdS7,https://materialsproject.org/materials/mp-1225330,10.400734652064472,-3.182390349897219,-4.9684857041992645,-15.973050910799225
-5.7999243400000005,-69.59909208,6.0817719598459234,-2.176765069453125,7.2000000000000005e-06,1.2779999999999996,8,12,272.1036066681685,996.5872800000001,mp-1223995,Ho4CdS7,https://materialsproject.org/materials/mp-1223995,10.504710420187251,-3.1544647553539056,-4.998410101571187,-16.019549125576187
-3.5474318663636364,-78.04350106,4.35789524234589,-0.9048686990340904,0.0,1.3530000000000002,9,22,544.6409387455242,1429.348,mp-5151,Cd4GeS6,https://materialsproject.org/materials/mp-5151,-1.4914942213422102,-2.658633715915479,-30.60580770646423,-36.58864631440082
-2.6326586683333333,-31.59190402,5.246409571056653,-0.1358096673850575,2.17e-05,0.07459999999999978,119,12,324.8095526702169,1026.2233557,mp-574338,CsGa3,https://materialsproject.org/materials/mp-574338,19.995036986618608,9.998287492143048,27.532065980133073,-40.49611116900021
-3.55924251,-85.42182024,5.484824836536988,-0.35680870633333345,2e-07,0.0,63,24,626.0456933310072,2067.8532,mp-28737,K2(CuTe)5,https://materialsproject.org/materials/mp-28737,16.350359872066136,22.39848795703094,-10.439890411778807,-14.546744943184306
-4.388072896666666,-26.32843738,7.3434311280219555,-0.14140856166666654,2.9234292999999996,0.0,10,6,171.71147048433616,759.3626689999999,mp-12743,CrTe4Au,https://materialsproject.org/materials/mp-12743,16.140677634678866,2.1886599620311165,-2.741880258562476,-18.30544486629963
-7.2834109925,-466.13830352,3.5668655426618066,-3.2721571700744043,0.0,4.815,120,64,941.694562353364,2022.77562,mp-6044,Sr6B(PO4)5,https://materialsproject.org/materials/mp-6044,-21.071509986521864,-31.80960981162597,-19.018932163043605,-32.07741287760151
-6.145212131184211,-467.03612197,5.857103368546491,-2.424944989652337,0.00092325,2.0088,64,76,1939.6403169090545,6841.557807599998,mp-1202825,CsLu7S11,https://materialsproject.org/materials/mp-1202825,11.058834707300608,-1.8751784140668828,-5.9468518626705364,-17.874901942995233
-5.110974035,-30.66584421,4.772656328347969,-0.2101470154022985,4.4632913,0.0,129,6,182.8464786622786,525.5301938,mp-1071293,CsMnAs,https://materialsproject.org/materials/mp-1071293,0.5745087191954554,-27.79544571885284,1.9460968069309093,-57.90863701788553
-7.1774801733928575,-401.93888971,3.993051587511214,-1.9733164157142864,3.882867125,0.0,29,56,1191.2404292026786,2864.5424,mp-555795,Y2CrS4,https://materialsproject.org/materials/mp-555795,17.32643588191077,5.577640718471531,-2.9632439526887064,-16.638213113790243
-3.190340875,-19.14204525,3.321048908269,-1.1038474981465516,0.0,0.3534999999999999,58,6,186.93664201662938,373.87,mp-1101405,Rb2O,https://materialsproject.org/materials/mp-1101405,-3.5697366682727796,-27.092643484466567,-21.434301850977953,-65.26109928974212
-3.359833369166666,-120.95400129,5.3245485755395725,-0.3723201303425927,0.0,0.8402999999999996,5,36,1138.4285896322951,3650.39193856,mp-1221042,NaGa6AgTe10,https://materialsproject.org/materials/mp-1221042,17.189428282302384,12.718454475936834,-13.168643080885115,-13.887223653865409
-6.400128775833332,-76.80154531,6.2489191706707405,-2.460283004869792,1.25e-05,0.0,12,12,275.55233364274346,1036.955,mp-1103125,Dy5S7,https://materialsproject.org/materials/mp-1103125,10.447299269844851,-3.1220048812089902,-4.905363037996151,-15.979336515871895
-4.06571526875,-65.0514443,4.443735595929133,-0.7540603061979176,0.0,1.5192999999999994,12,16,423.3819348297165,1133.004,mp-559864,InSb2S4Br,https://materialsproject.org/materials/mp-559864,0.30488254961686706,-2.341086968841104,-29.79731329353402,-35.5149003841667
-5.147037826666667,-30.88222696,3.959073023670145,-0.2462108070689653,3.47402815,0.011600000000000056,129,6,220.42114360767425,525.5301938,mp-505016,CsMnAs,https://materialsproject.org/materials/mp-505016,-5.587465900839815,-3.5782719200365367,-20.04373380773034,-53.58608940009135
-4.112553064,-20.56276532,4.603952097620937,-0.6406899470000006,4e-06,0.002000000000000224,166,5,118.79513133468723,329.3672,mp-1070099,Ca(GaAs)2,https://materialsproject.org/materials/mp-1070099,16.63050871010574,11.099922301426094,-8.366882782382941,-15.174335584006252
-4.002798555,-128.08955376,5.1076242815286825,-0.4827878832291672,0.0,1.0169999999999997,1,32,718.3466319784766,2209.5504,mp-1229180,Ag8Sb5As3S16,https://materialsproject.org/materials/mp-1229180,-1.862433943963158,-3.899013553754648,1.3337902862334488,-34.59144791125915
-3.63614876,-25.45304132,5.136808152834682,-0.7339985914285718,2.1600000000000003e-05,0.3662999999999999,97,7,238.39533173861375,737.466,mp-33880,Sr(GaTe2)2,https://materialsproject.org/materials/mp-33880,9.909236826609883,-22.15740454028884,-27.151230042181183,-34.51013028811542
-3.9408905778571435,-220.68987236,3.2973104626374568,-0.4956713427142862,1.25e-08,1.2098,14,56,1308.1918649921822,2597.65932608,mp-17473,Na2Al2As3,https://materialsproject.org/materials/mp-17473,-3.9524546603330535,-1.6310510892406789,-3.64656949424954,-22.665901699653173
-3.1518598425,-37.82231811,5.6291113774495445,-0.5193723494980244,7.37e-05,1.129,36,12,408.34791205311996,1384.2709037999998,mp-1225936,CsHgSbSe3,https://materialsproject.org/materials/mp-1225936,10.026597919440649,0.5402962056111916,-3.3487857012708884,-20.27508942436515
-4.4477959035714285,-62.26914265,3.0415001320229846,-1.433879320931429,0.0,2.4039,68,14,242.9782075173368,445.0472,mp-555474,Sr(ClO2)2,https://materialsproject.org/materials/mp-555474,1.478321426975268,0.581610141288792,-20.18442239111068,-55.820986971717176
-3.3398569336363635,-110.21527881,4.999772296011216,-0.2570915270707072,0.0,0.6940000000000004,1,33,1154.729132277096,3476.8124,mp-675033,Ga12Ag2Te19,https://materialsproject.org/materials/mp-675033,17.211383101225017,12.827693382405233,-13.066061024212306,-13.886436609076641
-5.10522622,-35.73658354,5.614733146560661,-0.7806708090476191,0.9848778,0.0,12,7,181.31493436542092,613.0749999999998,mp-1222726,Li(TiTe2)2,https://materialsproject.org/materials/mp-1222726,20.10724452124977,9.481824717635526,28.36531659732432,-39.60529286764145
-3.483665390833333,-41.80398469,5.587757037430869,-0.4547551614756944,0.0,1.1980000000000004,9,12,285.03482619793283,959.1496,mp-6215,AgHgAsS3,https://materialsproject.org/materials/mp-6215,-10.773767025571537,-59.326225310760286,-32.659706668974216,-46.798995149676934