energy_per_atom,energy,density,formation_energy_per_atom,total_magnetization,band_gap,sgr,num_sites,cell_volume,weight,mp_id,formula,URL,tsne_cry_0,tsne_cry_1,tsne_xrd_0,tsne_xrd_1
-3.5251222053571434,-197.4068435,3.561967850560705,-0.3681345390714285,0.0,0.9992000000000004,14,56,1855.1947433339594,3979.5174176,mp-17886,K2Al2Sb3,https://materialsproject.org/materials/mp-17886,-2.7745605667242654,-5.342706973979795,-23.915000048956504,-4.551682172804492
-7.086778005555555,-127.5620041,5.60139885356856,-3.365171113472221,0.0,3.6862,4,18,311.79183068920827,1051.7490772,mp-555284,Ba2NdAlO5,https://materialsproject.org/materials/mp-555284,-13.50902300652266,-80.81358730823555,-0.4614235380029638,-35.179149561889155
-10.169390406749999,-406.77561627,6.112870406158782,-2.457375865187501,14.0000001,1.1633999999999998,122,40,892.5104387565,3285.56,mp-684712,Gd2S3,https://materialsproject.org/materials/mp-684712,16.40944341189671,-4.373613819033469,9.23188933718293,-9.380938483754576
-5.904353166041666,-283.40895197,4.358001865384764,-2.0218086429193605,2.56e-05,3.4371,14,48,780.7969344013762,2049.1626,mp-1209454,RbPr(SeO4)2,https://materialsproject.org/materials/mp-1209454,-29.80428587457987,-52.727537830750656,-27.675671445708694,-52.37981087134101
-6.491000210999999,-129.82000422,6.796425682781758,0.046298947500001485,6.4801465,0.0,1,20,434.5182083456424,1778.4409999999998,mp-676935,Cr10Sb3Te7,https://materialsproject.org/materials/mp-676935,22.075415124781514,8.646750169301916,56.748256354958365,-23.68748160633951
-5.863736412142857,-82.09230977,3.5418465831456065,-1.950665116071429,2.0000003,0.0,166,14,362.309451883521,772.78791,mp-1246560,La3Mg2VS8,https://materialsproject.org/materials/mp-1246560,14.04928531939656,7.493899491816268,-25.852120299567552,-76.66102727552924
-6.957516807692307,-180.89543700000002,5.768434950302459,-3.1765993124038463,1.9499203999999999,0.0,64,26,542.0731851628678,1883.0716,mp-770465,Ba4Ce2O7,https://materialsproject.org/materials/mp-770465,-4.90684088482377,-62.17747278973803,-12.235952885289613,-64.58280973493869
-3.9628716335000003,-79.25743267,3.6251492389920696,-0.3634183283750005,8.99999995,0.7242,87,20,717.5463175601311,1566.4868,mp-1180391,Mo3Br6O,https://materialsproject.org/materials/mp-1180391,11.432634709942056,2.2187989540146638,0.4618942639654219,-18.08163406907765
-5.64800184625,-90.36802954,5.97225015996289,-1.830204605664063,2.8499999999999998e-05,0.1820000000000004,55,16,335.894737213296,1208.07,mp-1189757,Dy2SnS5,https://materialsproject.org/materials/mp-1189757,13.610100604099774,-5.319070426736982,-0.5922817703735196,-13.162945389868245
-6.048982137142858,-84.68574992,6.582949968107839,-2.2146003292261915,3e-07,1.7157,82,14,292.3597447561703,1159.01495,mp-33449,Tb5AgS8,https://materialsproject.org/materials/mp-33449,16.360171062850153,-4.3036899372424635,9.70648600396795,-9.35743730208871
-7.022182946470588,-238.75422018,3.9944111076881095,-3.1445438721617647,0.0,4.173,40,34,470.594973066915,1132.0118,mp-554346,KSr4(BO3)3,https://materialsproject.org/materials/mp-554346,-18.23894708795571,-31.77452021265223,-1.2683679652104574,-23.43274375009731
-5.372813974444443,-48.35532577,5.772179754218423,-0.5367949986666668,1.4e-06,0.0,79,9,166.02580476225555,577.1203,mp-1223845,K(SiPd)4,https://materialsproject.org/materials/mp-1223845,30.486892758995012,21.866274749145727,21.517645249343303,-45.47708130171827
-4.080205735,-32.64164588,5.788527152259357,-0.374142841972656,0.00028369999999999996,0.7135000000000007,6,8,240.773445540254,839.3199999999998,mp-1219000,Sn4TeSe3,https://materialsproject.org/materials/mp-1219000,32.42903828308084,-9.698744492399266,18.35999430631437,-36.69942089601296
-2.9494716477272718,-64.88837625,4.601083854767557,1.3215349968618186,1.075e-05,0.2419,58,22,730.8531209386642,2025.07524,mp-1179853,Pt(I3N2)2,https://materialsproject.org/materials/mp-1179853,-1.955445979552364,4.871752659011942,-35.07101494285191,-30.87226161006846
-5.445183226666668,-49.00664904,6.646574492577533,-0.323838026666667,0.07934633333333334,0.002400000000000624,12,9,229.45349356207328,918.4245,mp-11687,VTe2,https://materialsproject.org/materials/mp-11687,-2.8594571495860053,14.117736236199546,15.580799630366382,-33.261888810732884
-9.1034789365625,-291.31132597,7.063061114257041,-3.986043082656249,0.0,4.0802000000000005,62,32,504.3386441292336,2145.19176,mp-771121,La2HfO5,https://materialsproject.org/materials/mp-771121,-19.4989274232388,-67.13619163440774,-8.410353202207071,-66.9242812574781
-5.8046002846428575,-325.05761594,6.5862717066061665,-2.0166713398214293,0.0005407875,2.1819,36,56,1358.083210603111,5386.62736,mp-1217268,Tm2PbS4,https://materialsproject.org/materials/mp-1217268,7.932998092620548,-5.1834820227329566,-6.967917381533584,-12.932542226466293
-3.985593438875,-318.84747511,4.315262977426748,-0.2240007001264885,0.0001748375,1.4987,61,80,2195.8529704078337,5706.389792,mp-654129,GaAg(PSe3)2,https://materialsproject.org/materials/mp-654129,-7.955992116326858,-2.5188861049286593,-34.56537593486837,-45.49737763035218
-6.34917408225,-253.96696329,3.5754772076659935,-2.3468454936297207,0.0,2.9265,14,40,652.5719437053938,1405.119696,mp-1209385,RbAg(PO3)2,https://materialsproject.org/materials/mp-1209385,-7.763122104987701,-30.276043370837513,-8.4448640343905,-29.00631963965321
-5.384678247884616,-280.00326889,3.9545703249405335,-1.3175142795590191,0.01324555,1.761,167,52,1737.037192692497,4136.750519,mp-1182756,Cs5Tc6S8Br7,https://materialsproject.org/materials/mp-1182756,-4.6729696837566985,0.8638334213898401,-32.088054028185844,-36.84116355309781
-6.198721787857143,-86.78210503,3.1587517087347767,-1.7689219887500005,2.00000015,0.0,74,14,307.43924671916267,584.8246999999999,mp-1247241,YMgVS4,https://materialsproject.org/materials/mp-1247241,1.8401452431619687,26.3247244413843,-22.112377755292588,-79.75881799848227
-9.08338630125,-1090.00635615,6.088231553509568,-2.5149788597813343,27.00016785,2.2768,114,120,1708.2526766734015,6263.169728,mp-1204426,Eu4C2N4F5,https://materialsproject.org/materials/mp-1204426,-12.977281110164164,-34.15504728999132,-20.904431341819407,-52.46197880596339
-3.290461345,-59.22830421,4.468774751178503,-0.6483634242777774,3.0,0.8526,14,18,762.3706969702906,2051.66084,mp-30216,K2ReI6,https://materialsproject.org/materials/mp-30216,-1.6271143547153906,5.307198633065076,-34.666335336122735,-30.5992857295882
-5.7350781285000005,-458.80625028,3.4873704631360765,-2.0167600239609995,7.675e-06,3.8953,61,80,935.4119144547354,1964.4993600000007,mp-510709,SrAsH3O5,https://materialsproject.org/materials/mp-510709,-52.085052447878354,-46.538138994933455,-27.677199492016353,-51.88006342368723
-3.340664432,-33.40664432,4.347217771955293,-0.2894676648999997,0.0,0.060999999999999936,8,10,217.7188948970957,569.9784385600002,mp-1221272,Na2Zn3SiAs4,https://materialsproject.org/materials/mp-1221272,16.900638341630167,22.221223952118965,-10.608514732523842,-13.572346725957244
-3.688167095714285,-51.63433934,2.197766391562168,0.09958626714285757,1.575e-05,0.0,8,14,279.9446584626492,370.514,mp-1075152,Mg3Si4,https://materialsproject.org/materials/mp-1075152,35.24793748074713,21.05797052385568,55.28017496929709,-2.1284403524410527
-6.530368372000001,-261.21473488,6.316778370831843,-2.1178235059375,3.000000325,0.23260000000000056,58,40,784.598024511193,2984.6524,mp-18420,Er3CrS6,https://materialsproject.org/materials/mp-18420,12.950161843671186,-3.6210483161401954,-4.432944292057243,-17.480772187775894
-7.827850377142857,-219.17981056,5.476638145270095,-3.5700151861002034,2.65e-06,4.4909,31,28,459.68926198279627,1516.1051239999995,mp-1194001,Pr4PClO8,https://materialsproject.org/materials/mp-1194001,-12.362198381669195,-59.086529197559784,-17.742790678610138,-56.73750303650196
-4.711398595,-9.42279719,5.455969141144142,-0.0018026985714287849,4.94e-05,0.0,107,2,45.556659875635795,149.683762,mp-7526,SnP,https://materialsproject.org/materials/mp-7526,23.97428255471758,11.83723374853224,32.349242049135825,-40.53139385063874
-5.663857991875,-90.62172787,5.855321166950287,-1.8405555537890628,0.0,0.12959999999999994,55,16,338.547443942845,1193.7714,mp-555069,Tb2SnS5,https://materialsproject.org/materials/mp-555069,13.616754919064915,-5.4937013254349285,-0.6681141988666986,-13.174823912441218
-6.922475803214287,-193.82932249,6.730006909277103,-2.3278958752953574,0.0,1.3945000000000003,62,28,589.899547209218,2390.8068,mp-556247,Dy3S3N,https://materialsproject.org/materials/mp-556247,12.490310278791167,-3.353998577854976,-4.98814280091765,-18.293193392175684
-4.426644995416667,-106.23947989,4.336354372247167,-0.7295035583333332,3.9999999875,0.4824,61,24,474.33800607016195,1238.69276,mp-1181976,CoBrO,https://materialsproject.org/materials/mp-1181976,11.96035254778078,-17.770760597942857,0.21155271640044146,-20.538072339420488
-3.59495447375,-201.31745053,4.1638006115981305,-1.009269575669643,3.47458605,0.0,227,56,2408.802191775273,6040.07,mp-563032,Ba21Si2O5,https://materialsproject.org/materials/mp-563032,-5.829290388834064,-25.2968257208702,-27.76307898333457,-56.22933492512104
-7.075185413977272,-622.61631643,2.8351272380365913,-3.1234448449881813,0.0,5.005000000000001,86,88,975.8343069923708,1666.094176,mp-699464,Ca3Be2Si3(HO6)2,https://materialsproject.org/materials/mp-699464,-54.508146178938,16.927970819045726,-0.6811086105350671,30.99658281071285
-6.2417581521052625,-474.37361956,2.7970155733363637,-2.592309899055921,2.0035071,0.4019999999999999,15,76,1034.1492217118514,1741.9232000000004,mp-1199173,K2Ca5S6O25,https://materialsproject.org/materials/mp-1199173,-53.640585663016786,18.281540805423482,-41.45782334227572,-59.44716544592181
-7.149362145434782,-657.74131738,3.0261188679189983,-3.29780615781522,0.0,5.1509,161,92,1177.362966438372,2145.59260656,mp-9467,NaCa9Mg(PO4)7,https://materialsproject.org/materials/mp-9467,-18.607655097985216,23.99736196312953,-12.82547704686135,15.33387504222191
-7.625951074148936,-716.83940097,4.9820425313272025,-2.7816533084840427,0.0,3.2258,4,94,1419.1674884450808,4257.86604,mp-31128,La6Mo8O33,https://materialsproject.org/materials/mp-31128,-52.490306575325604,-52.1732726887001,-30.826234475079136,-51.704989092038275
-2.497397122857143,-69.92711944,4.216913325986848,-1.2673214546305418,5e-08,2.4983,14,28,1238.073115533506,3144.0676152,mp-1192922,Cs2HgBr4,https://materialsproject.org/materials/mp-1192922,-6.8489952062714305,-7.8685991912012625,-32.05315294146932,-33.43291874691282
-7.308645980500001,-146.17291961,5.183252870095755,-3.1069589148750003,0.0,2.4295,14,20,458.68795017897173,1431.76136,mp-755887,La2S2O,https://materialsproject.org/materials/mp-755887,10.566255527392066,-6.117756730686799,-7.8627676669011715,-19.557667027325675
-5.842928753571429,-81.80100255,4.21934690203484,-1.9986748073214295,1.9999997,0.0,166,14,331.99057610214794,843.5715,mp-1247126,Dy3Mg2VS8,https://materialsproject.org/materials/mp-1247126,12.619153018902258,8.113441487893155,-23.81861620682964,-78.75703202686788
-7.878600538461539,-102.421807,5.080951540477441,-3.2777250884615388,4.2999999999999995e-06,4.4995,166,13,237.19984205315785,725.78896,mp-542201,Ba3Nb2O8,https://materialsproject.org/materials/mp-542201,-7.411602750300747,-27.50133158118216,-25.940111967284626,-57.8516562237906
-6.1495008817045465,-541.15607759,3.7622896894828872,-2.1006472804356067,0.0,1.5944999999999996,62,88,2021.2807141308135,4579.623487999998,mp-554796,BaSc3AgS6,https://materialsproject.org/materials/mp-554796,10.003759467063661,-21.69568831601048,-15.894749114560057,-29.58195568616775
-7.05210543125,-225.66737379999998,3.388975618270784,-2.831262584868337,0.0,4.8166,2,32,470.67597539415834,960.597352,mp-601292,RbPrP3HO10,https://materialsproject.org/materials/mp-601292,-34.913020307791726,-24.419333305699052,-31.06717024746917,-32.12023288576982
-6.43451010375,-51.47608083,3.3773769734197656,-1.6993157117968758,0.0,1.0991000000000004,11,8,184.29483518544708,374.838,mp-9921,ZrS3,https://materialsproject.org/materials/mp-9921,-3.5468981863638898,3.49208104711764,-4.917796353139144,-20.912001627634414
-5.693558998333334,-136.64541596,9.603022945166444,-0.4903949033333343,0.0,0.06479999999999908,61,24,477.15716525365633,2759.4359999999997,mp-11152,SiSbPt,https://materialsproject.org/materials/mp-11152,27.13217126097107,26.23997459157458,38.097546944031,-25.36315536809893
-3.2763194375,-131.0527775,4.062591628801881,-0.5544244263,0.0,1.0605000000000002,19,40,1229.817181997222,3008.80910848,mp-29381,Na2Te2As,https://materialsproject.org/materials/mp-29381,-2.6159479557245247,-5.245410492259558,-24.22208887971528,-4.395756552476114
-5.305416019473684,-100.80290437,7.08761205882823,-0.26461663684210485,0.013193999999999999,0.0,204,19,527.2060035074284,2250.2522,mp-1210858,Pr12Ni6Pb,https://materialsproject.org/materials/mp-1210858,34.09361244718585,-48.14142724641347,30.494204490072068,-29.124117508447128
-4.3860661471739135,-403.51808554,2.718016064498089,-0.996511010461739,11.000000025,0.2337999999999999,14,92,1814.2731178647587,2969.652240000001,mp-744213,Mo3H9Br3(ClO)4,https://materialsproject.org/materials/mp-744213,-1.8975691433295228,0.8203567884024248,0.7175286258889717,-24.084560876523128
-3.6872566019999997,-36.87256602,4.309633098265839,-1.2537381522413795,3.0000001,1.2684000000000002,225,10,326.78641930596933,848.1159037999998,mp-1113013,Cs2LiMoBr6,https://materialsproject.org/materials/mp-1113013,-0.30677542328896745,14.738004291814553,-26.932701065509853,-70.25476374755425
-4.1804657216,-104.51164304,3.8260148730660695,-0.9453092027041669,0.00031648,0.025900000000000038,1,25,609.2149447917081,1403.68,mp-1224212,InGaS3,https://materialsproject.org/materials/mp-1224212,-2.373014436687761,9.265706850980589,-33.9603959432551,-47.56758210382467
-5.477352,-43.818816,3.9744419186751188,-3.2484697471424995,2.0,0.0,166,8,105.95790164936943,253.6065192,mp-554332,SrCrF6,https://materialsproject.org/materials/mp-554332,-18.695957666368102,-19.627799019551393,4.668453492081146,-11.410762348045811
-5.947144063541668,-285.46291505,4.299790997014345,-2.0526903672943604,0.0,3.5027,14,48,788.2745246782903,2041.15388,mp-1209487,RbLa(SeO4)2,https://materialsproject.org/materials/mp-1209487,-29.801299235212262,-52.70719344313367,-27.671723447687626,-52.37157571001804
-4.233843095,-59.27380333,2.476018838526977,-1.8264922067200002,4.9999997,2.0864000000000003,55,14,325.5726034007965,485.45916712000013,mp-27280,Na2MnCl4,https://materialsproject.org/materials/mp-27280,-17.593155923466576,14.128291732797413,-9.047808356720832,-21.601966603114878
-3.408460405714286,-23.85922284,5.7147036951277945,-0.5051710634821431,1e-07,0.9081,82,7,190.57990781352044,655.8760000000001,mp-4730,Ga2HgSe4,https://materialsproject.org/materials/mp-4730,14.106107676846651,14.598139436717725,-16.58221407146373,-73.10514211194895
-4.30183354375,-172.07334175,3.3331402531738044,-1.8837874873879308,0.0011332,1.8555,14,40,905.6682082714623,1817.9152,mp-778256,Rb2MgO2,https://materialsproject.org/materials/mp-778256,-4.597284973382969,-33.50110235064157,-1.213620127813895,-28.791871060099893
-2.7160770855555563,-24.44469377,3.754616408726211,-1.0550138911877396,6.5000000000000004e-06,2.1286,87,9,344.06505131666694,777.9595999999998,mp-570324,Rb2TeBr6,https://materialsproject.org/materials/mp-570324,0.34222669309008125,13.866473884642947,-28.506380698816976,-70.67128725890534
-7.509448499999999,-210.264558,4.964863023325941,-3.416309151666667,0.0,4.1494,14,28,517.0972266269574,1546.0744,mp-3397,Ba2TiO4,https://materialsproject.org/materials/mp-3397,-9.50670174767353,-31.056390612816557,-6.6662100650302065,-25.260726655316105
-3.55608711,-24.89260977,5.106033551829565,-0.5940098037202384,1.4e-06,0.9809,82,7,198.6666129694597,610.885,mp-22607,Zn(InSe2)2,https://materialsproject.org/materials/mp-22607,14.842504113151946,14.975380183325493,5.83723915370687,-17.14337600444138
-4.731791237608697,-217.66239693,2.7914773337356737,-0.20973136458501754,5e-08,1.1115,9,46,686.2462829221279,1153.6259599999998,mp-1200633,AgH12C4Se5N,https://materialsproject.org/materials/mp-1200633,-10.276745371443925,1.4712658641439016,-38.48507033139581,-44.155746766364544
-7.469923146666668,-224.09769440000002,2.8221437746345153,-3.448551639916666,0.0,4.7103,15,30,410.0947078667143,696.9702,mp-17552,CaSiO3,https://materialsproject.org/materials/mp-17552,-17.429434872708462,31.527993859880556,-16.966543948702775,-8.010889297413541
-7.803455850681818,-343.35205743,6.393817415793799,-3.3950897455681828,0.0,2.807300000000001,62,44,675.736843202288,2601.88884,mp-1211549,La3SbO7,https://materialsproject.org/materials/mp-1211549,-11.514429103612736,-62.29490763478429,-8.674164829371087,-66.16850462120733
-4.608403042857144,-64.5176426,3.762207700195889,-1.1556285801785722,4.0,0.0,166,14,310.95740944930384,704.5220449999998,mp-1247250,Mg2MnIn3S8,https://materialsproject.org/materials/mp-1247250,1.9061992438610496,25.979236896483823,-22.64948920256772,-79.6991899823931
-4.69690355,-93.938071,4.29632420279328,-1.4795622674374995,0.0001371,0.9201999999999996,62,20,467.7063921287794,1210.1,mp-1205419,SrSnS3,https://materialsproject.org/materials/mp-1205419,2.479894987544092,-5.249813961981198,-5.196332180333934,-19.72438623983182
-6.039099875000002,-36.23459925,5.2502638309917256,-2.401058438697917,2.8999999999999998e-06,0.0,164,6,138.21094711913793,436.99300000000005,mp-1227043,CaSm2S3,https://materialsproject.org/materials/mp-1227043,24.838448187021452,10.040783700451444,30.0224082336508,-39.67178055712807
-6.580596678928572,-184.25670701,3.7592725247665753,-2.5125258498214293,0.0,1.812,62,28,695.6031341351722,1574.7668,mp-29035,Sr(YS2)2,https://materialsproject.org/materials/mp-29035,16.442608372539958,4.434495858291163,-7.678419085299875,-11.795517780277775
-8.6042056065625,-275.33457941,5.527855458289649,-3.779634829114583,0.0,3.3096,62,32,492.2621270856147,1638.7172,mp-1195324,Pr2TiO5,https://materialsproject.org/materials/mp-1195324,-11.321003893334696,-59.026732633920936,-19.36779859458503,-58.104085972244285
-7.2015863389999994,-216.04759017,4.2765698768803295,-3.334836352539667,0.0,4.6610000000000005,82,30,442.0437559747165,1138.4441832,mp-866662,K5La4Si4O16F,https://materialsproject.org/materials/mp-866662,-20.612765358204538,-28.206315132564924,-17.388050774817625,-29.29251999560214
-7.010912858125,-112.17460573,5.558970713036486,-3.189064216875,0.0,3.7430999999999988,14,16,212.4990608220191,711.38108,mp-1020057,LiLaO2,https://materialsproject.org/materials/mp-1020057,-13.011041169916547,-34.53312412438241,-26.085621551914983,-45.63438389545944
-6.325796766428572,-88.56115473,3.1357977352415047,-2.2691142801785715,0.0,1.7768000000000002,227,14,349.89719017327934,660.7534,mp-1001024,Y2MgS4,https://materialsproject.org/materials/mp-1001024,14.487223271662373,9.522930132136539,-24.87579381594088,-77.18570116193575
-6.249336966875,-99.98939147,7.089604214701297,-0.3723460243750001,0.10093245,0.0,64,16,381.34997928991453,1628.1583,mp-5603,NbCoTe2,https://materialsproject.org/materials/mp-5603,20.531684295030868,4.169595382854482,15.37520346109176,-9.99932951760477
-6.44250041,-25.77000164,6.987072949328367,-0.04543544249999965,6.984652499999999,0.0,187,4,85.37560096310351,359.23609,mp-1221531,Mn2SbTe,https://materialsproject.org/materials/mp-1221531,25.83129179464387,22.165596590589647,57.12628762212498,-23.6357757198981
-5.148590767777779,-92.67463382,4.590070760824854,-0.4999031669348655,14.999999800000003,0.2490999999999999,72,18,680.8648040380571,1882.0500776000001,mp-5927,Cs2Mn3Te4,https://materialsproject.org/materials/mp-5927,2.5641676933744417,-3.158346954068775,-16.057345797097142,-14.175217971921839
-3.741360868,-18.70680434,3.698176087321616,-0.07215412199999989,3.8e-06,0.0,164,5,100.3765912553885,223.5480772,mp-1232292,Mg(AlGe)2,https://materialsproject.org/materials/mp-1232292,16.40726252133297,10.858387636250349,4.968951540810197,-10.473973635824633