energy_per_atom,energy,density,formation_energy_per_atom,total_magnetization,band_gap,sgr,num_sites,cell_volume,weight,mp_id,formula,URL,tsne_cry_0,tsne_cry_1,tsne_xrd_0,tsne_xrd_1
-5.70985110625,-45.67880885,5.589183542975803,-0.4081215487500005,2.25e-07,0.0,140,8,159.8456247695904,538.0219999999999,mp-1079083,SiPd,https://materialsproject.org/materials/mp-1079083,16.40417852431474,23.114848315092487,24.514259999820396,-40.98527502986085
-3.403078385633803,-241.61856538,5.0685174850539925,-0.4201423102816901,0.0230297,0.0,1,71,2236.302474556386,6825.939,mp-685906,Li7(Ga3Te5)8,https://materialsproject.org/materials/mp-685906,17.228636495865878,12.9223718714136,-13.194001819969984,-13.891828629706323
-3.5167247126785712,-196.93658391,4.117578710636674,-0.42130891948809535,1.25e-08,0.7807999999999997,14,56,1718.2889993439803,4260.7792,mp-21741,K2In2As3,https://materialsproject.org/materials/mp-21741,10.369535736193262,2.3846720296359303,0.7573122497091533,-17.009120671661073
-7.510152344166666,-180.24365626,3.0500197246407934,-3.1073158826116063,0.0,5.3171,152,24,264.3666055350798,485.579286,mp-6667,CaBPO5,https://materialsproject.org/materials/mp-6667,-53.95624511245465,16.983867480691902,5.219424642828477,-53.184404984563926
-3.3713623810000004,-67.42724762,4.541328252253825,-0.4701016973976294,0.0,0.7410000000000001,14,20,727.4769978568193,1989.5418075999999,mp-9462,CsTeSe3,https://materialsproject.org/materials/mp-9462,-0.5123684847367286,-4.14219506022359,-21.320474769912483,-31.40045121704413
-5.42995707,-16.28987121,6.320277050010022,-0.3086118700000006,1.0287867,0.0,164,3,80.43316906706706,306.1415,mp-1008626,VTe2,https://materialsproject.org/materials/mp-1008626,6.2337848346726,0.13531460042393487,21.633095279764014,-36.73967042504268
-2.86474823875,-45.83597182,6.2413383357254375,-0.08346018874999972,2.1375e-06,0.0903999999999998,61,16,398.7261436978935,1498.6608,mp-7373,CdAs,https://materialsproject.org/materials/mp-7373,31.942746221015643,-6.951032686433033,53.08950372007997,0.5348947407294146
-3.3885442365384617,-88.10215015,3.1415920244725406,-0.7842123890276441,0.0,1.4058,160,26,1092.4635639340158,2066.8438,mp-6296,K6Cd4Sn3Se13,https://materialsproject.org/materials/mp-6296,-3.879550350750792,1.1090430251834096,-37.59847046892736,-35.255743815403754
-8.375070233333334,-125.6260535,6.378685063179576,-3.8685845055833328,0.0,3.4153,12,15,254.4499961356351,977.4274199999999,mp-557691,La2O3,https://materialsproject.org/materials/mp-557691,-9.494118505057383,-61.710404212282,-9.8535025587905,-66.54673828261876
-6.32338481875,-101.1741571,3.5091590352550006,-2.7476794970775003,0.0,3.928500000000001,4,16,255.07102983458358,539.0326799999998,mp-995194,KBaSiHO4,https://materialsproject.org/materials/mp-995194,-7.839656203114545,-16.176172449417155,-8.585220651684363,-22.661406509307238
-6.642298851666666,-79.70758622,5.079988815677137,-2.409099024036458,0.0008330999999999999,0.0,12,12,258.6075828436028,791.1428740000001,mp-1217634,Tb3Sc2S7,https://materialsproject.org/materials/mp-1217634,11.696094985924695,-2.089215057155984,-5.739584775899925,-17.359847287812293
-7.0058240225,-224.18636872,2.92711944482971,-3.2346656704966072,0.9999998,0.7796000000000001,1,32,368.3107885308005,649.2407856000001,mp-1227653,Ca4Be4P4O17F3,https://materialsproject.org/materials/mp-1227653,-53.921214332526475,16.895268558376948,-8.509263267446673,-20.90047595621379
-7.407687188333332,-88.89224626,4.940080001137164,-2.289865306953125,3.1234111,0.0,8,12,274.99536988301145,818.1073099999999,mp-1216101,Y4US7,https://materialsproject.org/materials/mp-1216101,10.727656667317703,-2.17122995779626,-6.118186434713816,-16.947924701127153
-3.6176281727272728,-79.58781979999999,3.805408571893806,-0.9723537885344832,0.0,1.1510999999999998,15,22,875.3264806519056,2005.96,mp-1191418,Rb4Sn(Te2O)2,https://materialsproject.org/materials/mp-1191418,1.7529641795046895,-3.734291552016306,-31.504467948890227,-31.31729932226592
-4.166862945,-225.01059903,4.8028203761177215,-0.0783706267177522,0.0174392,0.0,223,54,1391.6765556249622,4025.1824,mp-1209551,Rb4Ge23,https://materialsproject.org/materials/mp-1209551,18.492007606872924,23.447329988336648,16.00841366113018,-46.47557715977375
-5.476948039404761,-460.06363531,6.602941362050758,-0.2728009865476197,5.8333333333333326e-08,0.5956000000000001,61,84,2516.859351172328,10008.0,mp-1204799,Tc2Te5,https://materialsproject.org/materials/mp-1204799,20.782782534252906,4.666503854019407,14.401015397855337,-10.075232088505468
-4.03664872375,-32.29318979,4.8519580651684615,-0.12771497124999964,0.0,0.4009,122,8,198.73230569446343,580.6794,mp-3078,CdSiAs2,https://materialsproject.org/materials/mp-3078,14.872765792738893,14.677952695273989,-16.579749224467918,-73.086791722042
-3.9327433285714286,-110.1168132,4.205807771156312,-1.1418869499014777,3.99978375,1.0076,194,28,1034.2183128322465,2619.4647114,mp-23015,Cs3Mo2Br9,https://materialsproject.org/materials/mp-23015,-1.2750322213733758,14.16418050999128,-28.365411962161154,-69.88724339534329
-4.13352071125,-66.13633138,4.241926456618172,-0.8687612241054175,0.0,1.5236,12,16,408.7228174446734,1044.1019999999999,mp-556541,InSb2S4Cl,https://materialsproject.org/materials/mp-556541,0.16340165884562005,-2.4624743301630794,-29.988424192343523,-35.60410597917104
-4.698761815,-56.38514178,3.724329325925421,-0.3173298133333328,3e-07,0.0,191,12,219.29788224671555,491.85084739999996,mp-16483,BaAl9Fe2,https://materialsproject.org/materials/mp-16483,16.255807756741678,21.294467377455103,24.45183084842805,-39.87991986811957
-7.855098266944443,-282.78353761,6.0554654052483725,-3.1639843388888886,0.0,2.6652,142,36,526.9664849350714,1921.6816,mp-18494,Nd2MoO6,https://materialsproject.org/materials/mp-18494,-22.124141330227946,-66.86166260311808,-9.481328318705863,-78.33597257342737
-4.222566025,-42.22566025,4.2257534703280415,-0.7755940994827583,4.99998645,1.0935,72,10,452.6462422594272,1151.8978976,mp-610744,Cs2MnTe2,https://materialsproject.org/materials/mp-610744,-6.3534831312904,-24.773447841550077,-27.81719234973557,-57.14234120931716
-3.6756853266666663,-44.10822392,4.199137450836247,-0.4569015382814285,5.3e-06,1.1294,15,12,279.3412830862234,706.392572,mp-644431,Cd2P3Cl,https://materialsproject.org/materials/mp-644431,-0.481286984683449,-3.194737529943129,-14.684607411809097,-31.457608425332168
-6.014108823928572,-168.39504707,5.468123278346083,-2.5143825319642863,0.0,1.8208999999999995,62,28,672.6409211655077,2214.99368,mp-1194307,Sr(TmS2)2,https://materialsproject.org/materials/mp-1194307,9.37124257023968,-1.9673334224825807,-7.660293528726915,-13.68428109441332
-3.7947459040277787,-273.22170509,3.926211743192608,-0.4918624911262401,0.0002478,1.3432000000000002,14,72,2105.3125547647887,4977.8431439999995,mp-1196972,KAgPSe3,https://materialsproject.org/materials/mp-1196972,-0.4315526084418862,0.6863195896623706,-1.4443977475615213,-22.64209564948281
-5.4231618233333325,-16.26948547,5.967716968442729,-0.6958426188888893,2e-07,0.0,164,3,84.32949952165774,303.067,mp-1907,TiTe2,https://materialsproject.org/materials/mp-1907,20.02484573274535,10.248882877631313,27.837721824389963,-40.50465619919571
-5.5076487475,-66.09178497,5.219947759832389,-1.3258906236646917,4.9999968,0.5453999999999999,63,12,376.63597121159415,1183.9649938,mp-1213650,CsErMnSe3,https://materialsproject.org/materials/mp-1213650,10.207398028206546,0.7400899077453711,-2.985199601828392,-19.944587284242857
-2.9841624695238096,-62.66741186,3.7710411626891536,-0.492226746327997,3.73e-05,0.3067,164,21,761.1546935056633,1728.5626,mp-1219774,Rb12Sn2As6O,https://materialsproject.org/materials/mp-1219774,-3.3222525949923987,-29.120762442701288,-10.86615457277033,-60.52263501050742
-4.189858899,-41.89858899,4.674773434413053,-0.5883871531904766,0.0007737,0.17999999999999972,194,10,269.39583898214624,758.4070479999998,mp-1078973,Sr(InP)2,https://materialsproject.org/materials/mp-1078973,16.523573310316994,10.062666093611403,-8.352988060069018,-14.955760770388965
-6.90890452675,-276.35618107,5.910437242034928,-2.6264545211249994,0.0,3.1591,217,40,693.1149219913659,2467.0376,mp-3782,Nd3Sb5O12,https://materialsproject.org/materials/mp-3782,-19.41255039723707,-67.21785190215388,-7.246492160788239,-67.6112185357657
-6.87336979,-34.36684895,5.957327615708957,-1.1154360844285711,0.0,0.0,166,5,130.62312180760972,468.621762,mp-16765,Zr2Te2P,https://materialsproject.org/materials/mp-16765,21.608713824020263,-1.604088612898613,27.860750991310137,-41.61915512704014
-3.0801263131666667,-184.80757879,4.5837082078100275,-0.3366177705000003,4.210000000000001e-05,1.4391,14,60,2182.1712448042613,6023.607999999998,mp-1198778,Te6RuBr8,https://materialsproject.org/materials/mp-1198778,7.7578040104269625,1.1607532912142733,-1.1725338421544202,-21.970828265901407
-4.9719021570000015,-198.87608628,5.175240570101944,-1.5111667477708337,0.0,1.3467000000000002,11,40,921.2890807121772,2871.2921,mp-20606,Tb3In5S12,https://materialsproject.org/materials/mp-20606,8.987947997969288,-3.3852727664516165,-5.617283151094236,-14.409004149996283
-6.052679801785715,-169.47503445,4.997472995235686,-2.4789523005357155,2.7425e-05,1.5470000000000002,62,28,662.1572880402448,1992.79456,mp-1194276,Ca(HoS2)2,https://materialsproject.org/materials/mp-1194276,12.615932567237385,6.3248348974775634,-7.216508557574644,-16.588707172392443
-4.5421748275,-54.50609793,3.5128710661190783,-0.4057606058333333,0.0,0.0,191,12,211.9215999143456,448.3202374,mp-16491,SrAl9Co2,https://materialsproject.org/materials/mp-16491,16.198475881301615,21.464570991595878,24.520211440473485,-39.96002804455937
-3.9640923578571434,-55.49729301,4.8517835852846565,-0.7685297349107142,0.0,1.2611999999999997,227,14,330.07873774781905,964.4281544,mp-3807,Al2CdSe4,https://materialsproject.org/materials/mp-3807,5.343835142272477,26.149356805521453,-19.433469859202283,-75.87940958788592
-4.6560890146590905,-409.73583329,5.021626997210932,-0.35429482102272725,0.0001439375,1.5657,61,88,3279.5199627061934,9917.57832,mp-29440,CuMo3I7,https://materialsproject.org/materials/mp-29440,19.345112290230173,5.8702818874860325,13.971621854849046,-10.130819135386764
-5.4972190461666655,-329.83314277,3.1321196047295063,-1.7741369357895835,1.3118975,0.0,12,60,1273.5718806937687,2402.21961632,mp-1221560,Na19Zr11S30,https://materialsproject.org/materials/mp-1221560,14.797775679687366,10.151096669552924,28.251307989380035,-43.46421645519478
-3.750908401428571,-105.02543524,5.206250494335047,-0.389891533883928,0.0,1.6949999999999994,15,28,631.1673765290633,1978.8848,mp-561620,Ag3AsS3,https://materialsproject.org/materials/mp-561620,15.322075641667135,-14.80184639055428,-0.6393719196612386,-27.59613547377921
-4.053491993888889,-145.92571178,5.454702055507169,-0.8527413961111113,0.0,0.6347999999999998,33,36,1288.2395341609695,4231.736,mp-17885,Ba2Ge2Te5,https://materialsproject.org/materials/mp-17885,-0.8672811908006304,-26.721218135399585,-3.002260056679965,-32.120042820231475
-5.488032266666668,-65.8563872,5.265595833909548,-1.3211462969980243,4.99999945,0.5388000000000002,63,12,374.4274455536426,1187.3154138,mp-1213648,CsTmMnSe3,https://materialsproject.org/materials/mp-1213648,10.184494003778322,0.7303035476830878,-2.9744632923244083,-19.946072652675127
-4.9506308875,-59.40757065,4.18966054943187,-0.8115379474999992,4.9999998,1.5308000000000002,227,12,340.4516305803838,858.9841799999998,mp-571084,MnBr2,https://materialsproject.org/materials/mp-571084,20.428362975038365,10.867839159533649,28.3259396486859,-42.557781968349225
-3.945393173928572,-110.47100887,4.186542837256454,-0.8326197781250002,0.000609775,1.4167,62,28,693.4647867778543,1748.36,mp-1192564,Mg2GeSe4,https://materialsproject.org/materials/mp-1192564,-5.6000034367902565,-1.7362562488556217,-12.540837781308547,-71.72975543200961
-3.8385224064999997,-76.77044813,3.806125150818348,-0.9470805001000002,4.003313625,0.0573999999999999,62,20,584.0146275520448,1338.6212,mp-23348,KFeBr3,https://materialsproject.org/materials/mp-23348,-2.3673878741814542,13.714639262058752,-1.697561235494336,-22.902837458320175
-7.223349651111111,-520.08117488,3.1263056535240037,-3.01644596186508,0.0,5.6893,14,72,1043.45135200188,1964.5113920000001,mp-3765,Sr(PO3)2,https://materialsproject.org/materials/mp-3765,-29.54504322279078,-23.42252558691619,-27.148544975768797,-3.355012592155758
-2.967308266111111,-106.82309758,3.3868774730700477,-1.0401953692314814,2.009121,0.4126,62,36,1193.4231128253878,2434.136,mp-1202888,K2InBr5O,https://materialsproject.org/materials/mp-1202888,-0.04170517067013711,-0.5251579309378038,-31.88416854547727,-31.092242795598175
-4.314815939545454,-284.77785201,2.7076130678941794,-1.1316921442472727,0.0,1.9131,14,66,923.8063728816687,1506.3242400000001,mp-740696,TeH18(Br3O4)2,https://materialsproject.org/materials/mp-740696,-29.392433287019248,-6.8112832154178085,-34.32950410554181,-31.07934434604529
-8.30600326875,-132.8960523,5.240979138064522,-3.2796616934375,3.289999999999999e-05,3.9408,40,16,234.34487078171813,739.63728,mp-1223327,La2CO5,https://materialsproject.org/materials/mp-1223327,-10.90101911105454,-59.38213607940391,-18.2945180391302,-66.72662459542707
-4.395469205416666,-105.49126093,4.35193235252312,-0.6646598657031243,0.00071955,0.7029000000000005,11,24,633.5520417287441,1660.41,mp-1191223,SnSb4S7,https://materialsproject.org/materials/mp-1191223,0.3641384475871873,-2.569856824891997,-29.54425766530147,-35.925432335632294
-5.065039889545455,-222.86175514,5.626322897491379,-1.5620227336126895,0.00319355,0.0,55,44,979.8394798836957,3319.942,mp-1196341,Er4In5S13,https://materialsproject.org/materials/mp-1196341,9.459374341738195,-4.46060318075744,-5.850947972121467,-13.242337779653564
-4.266396033333334,-51.196752399999994,3.4228141503254883,-0.3519381216666666,0.00015759999999999998,0.0,191,12,217.2647552704131,447.8406474,mp-1103130,SrAl9Ni2,https://materialsproject.org/materials/mp-1103130,16.203403296550988,21.4421104303744,24.529021295501536,-39.96575115502514
-6.98647438125,-223.56718019999997,2.897895587961841,-3.127632746201608,1.0000001,0.7269999999999999,7,32,370.3065470723629,646.2417823999998,mp-1227534,Ca2Be2P2O9F,https://materialsproject.org/materials/mp-1227534,-53.911505120433894,16.898156600556927,-8.503925437321824,-20.897882246984647
-2.989947888333333,-35.87937466,5.4567154939304015,-0.2511944116666669,0.0,0.9081,14,12,438.48664558244036,1440.9157599999999,mp-27747,PdI2,https://materialsproject.org/materials/mp-27747,-4.774696873456139,3.0983405903527275,-36.02323780329973,-32.80339007008788
-9.013330625833332,-108.15996751,4.959229141852113,-2.4161448332031257,20.7135305,0.0,12,12,263.22189173240986,786.1168240000001,mp-1224776,Gd3Sc2S7,https://materialsproject.org/materials/mp-1224776,11.676680216532269,-2.051125918484298,-5.740995374834182,-17.31249033837478
-4.856001606,-145.68004818,4.170007374901338,-1.1749275561562498,0.0204975,0.0,148,30,731.4504130284403,1836.845472,mp-1232171,MgScSe3,https://materialsproject.org/materials/mp-1232171,19.454526725307886,10.454934760866752,26.953848256387076,-40.68622184183331
-7.84437314,-156.8874628,4.366757659508308,-3.026369027375,0.0,2.5518,14,20,392.34718293826495,1031.7644,mp-8869,Y2S2O,https://materialsproject.org/materials/mp-8869,13.17754660248399,-1.7551768989846954,-7.137032785779335,-20.296352132813567
-4.135949357368421,-157.16607558,3.872878757405247,-0.6227396324210536,11.0000004,0.13500000000000026,137,38,1301.6050310386145,3035.7362,mp-1194770,K7(FeTe2)4,https://materialsproject.org/materials/mp-1194770,-2.537385111541558,-1.3696672461944108,-31.35414378857035,-32.51253241845327
-6.326729454166667,-75.92075345,6.762484946796715,-2.439911029036459,1.06e-05,0.0,12,12,262.52561871460233,1069.12605,mp-1102847,Tm5S7,https://materialsproject.org/materials/mp-1102847,11.535605634614921,-2.7848288810181385,-5.110055444186433,-16.90181755498803
-4.665084057307693,-363.87655647,4.358706201452735,-0.847010414480319,0.0,0.5868,159,78,2431.7488233435065,6383.034918999999,mp-16000,Cs5Ti6AgSe27,https://materialsproject.org/materials/mp-16000,-4.945253347767946,-1.7696632500479648,-31.30803155230672,-38.691771106863214
-5.705377704285715,-39.93764393,7.0428634382218265,-0.14065447857142846,7.1470401,0.0,12,7,158.75405150596148,673.3253950000001,mp-1025239,Cr2CoTe4,https://materialsproject.org/materials/mp-1025239,19.39969901231852,10.529752027627252,26.46857881290285,-41.116829356669385
-6.432207774166668,-77.18649329,4.173123387907232,-2.179274381953126,1.12e-05,1.2574000000000003,8,12,275.5503675779974,692.4893999999998,mp-1216108,Y4CdS7,https://materialsproject.org/materials/mp-1216108,17.19683153152513,5.4033615813670774,-3.2338908459341447,-16.14099062255766
-3.358445910625,-53.73513457,5.114826793990217,-0.4964515869726562,0.0,1.1192000000000002,12,16,488.6786130135183,1505.2379999999998,mp-567556,CdSb2Se3Br2,https://materialsproject.org/materials/mp-567556,16.343088816408528,2.1051192646936,-0.6292741813031357,-16.828802067239295
-2.8276917276190483,-59.38152628,3.842448017252328,-0.48446901156609207,0.0,0.1014999999999997,164,21,868.4587575492978,2009.5929999999998,mp-1219816,Rb12Sn2Sb6O,https://materialsproject.org/materials/mp-1219816,1.2780329463383475,-0.6184493920426251,-30.044644719857008,-57.97797209890069
-7.434060442777778,-267.62617594,3.615215430017022,-3.227700902453704,0.0,4.283,14,36,508.66697929887454,1107.436,mp-5401,Sr2B2O5,https://materialsproject.org/materials/mp-5401,-17.519394546673954,-32.51021125860654,-30.488867542302103,-37.298153873707044
-4.177727995,-16.71091198,5.016534771717158,-0.7327310753645833,7e-07,0.05480000000000018,160,4,80.26870584770728,242.49400000000003,mp-1097021,InCuS2,https://materialsproject.org/materials/mp-1097021,14.180586758444688,22.31016094921293,-21.80853208367844,-78.17717084674445
-4.634477577941175,-157.57223765,4.3617036771975295,-0.7553726501854089,0.0,1.197,9,34,1163.4542989350728,3056.0214314,mp-683903,Cs3Nb2AsSe11,https://materialsproject.org/materials/mp-683903,-5.238429589552502,-2.2501703744000454,-30.95450525781753,-38.72226043049279
-3.4199242233333336,-123.11727204,5.065476352313769,-0.4519181955555555,1.675e-06,1.0404000000000004,146,36,1119.960217606439,3416.44,mp-33338,LiGa3Te5,https://materialsproject.org/materials/mp-33338,17.239041556577053,12.921148549184649,-13.330678049712288,-13.952413523789561
-3.9768529367857135,-111.35188223,3.6723361964575734,-1.833111701687192,0.00214855,3.0303,194,28,1092.2418124135907,2415.5283594,mp-1213834,Cs3Sc2Br9,https://materialsproject.org/materials/mp-1213834,-3.7909865569250147,-27.748232997921672,-28.37416073625605,-67.57069432182224
-3.704425574,-18.52212787,5.037116193298447,-0.6464583728571427,0.0,0.0,139,5,108.81851874757031,330.092524,mp-7426,Ba(ZnP)2,https://materialsproject.org/materials/mp-7426,19.7233839728492,8.599758301712438,23.550270070366658,-41.039607249209475
-4.01529919,-32.12239352,5.4299386208843865,-1.8891050552975008,1e-07,0.0,129,8,179.6872806618813,587.5748063999998,mp-1078903,SrZnSbF,https://materialsproject.org/materials/mp-1078903,20.943406449723607,-7.793345224273857,7.700700030113523,-20.061776105961037
-2.456682106,-98.26728424,4.048764357558636,-0.3689657781457587,1.25e-06,0.9265,167,40,1530.335552977763,3731.2992304,mp-1202213,Cs8Ga11Cl,https://materialsproject.org/materials/mp-1202213,2.205260689985952,-3.787511406200816,-18.377410131605387,-13.395993469339054
-4.452794318958333,-213.73412731,4.0985214441199265,-1.0818176919612064,0.0,1.5323999999999998,14,48,1034.1694707046006,2552.524,mp-8198,Rb3Cu5O4,https://materialsproject.org/materials/mp-8198,-1.3235851592203471,-4.877521958079831,-23.01254665543275,-30.103312739248608
-4.418669933428571,-154.65344767,3.5246499417182027,-1.5070313278285714,0.8871834000000001,0.04470000000000018,225,35,1183.9987446252444,2513.148445,mp-1212020,K8Zr6MnBr20,https://materialsproject.org/materials/mp-1212020,8.072047633034233,-0.4212406950573951,-1.2931216037126698,-19.183598542074773