energy_per_atom,energy,density,formation_energy_per_atom,total_magnetization,band_gap,sgr,num_sites,cell_volume,weight,mp_id,formula,URL,tsne_cry_0,tsne_cry_1,tsne_xrd_0,tsne_xrd_1
-5.7570799092857134,-80.59911873,5.468337409171133,-1.63531584,0.047207599999999995,0.0,88,14,132.44085433910294,436.14227719999997,mp-1252148,Al(CuO2)2,https://materialsproject.org/materials/mp-1252148,19.725135880143487,52.58028532688333,4.319340233072428,50.03570665628318
-8.025171647999999,-80.25171648,4.966120269862818,-3.5730863905833337,0.0,1.7783000000000002,140,10,122.70517881381248,366.9704,mp-551830,SrTiO3,https://materialsproject.org/materials/mp-551830,17.035696180684607,-94.32355088681156,60.953970413469676,-64.470933703844
-6.256367094,-62.56367094,5.381676926423032,-1.501986861442001,5.0000004,1.3822,148,10,99.74301289848313,323.25929,mp-19331,MnNiO3,https://materialsproject.org/materials/mp-19331,12.74205990638422,53.68137548037799,10.408689203168333,40.841406222497284
-2.7986786775,-22.38942942,2.88511497809778,-0.1701563549999996,0.00018265,0.0,164,8,123.60191644502085,214.753,mp-1087492,Li2ZnSi,https://materialsproject.org/materials/mp-1087492,37.78575220123221,39.21699074596195,61.26150568138917,-14.489876765080561
-5.477828914642856,-153.37920961,4.222360405491485,-1.6974874890178582,10.6522691,0.0,12,28,248.9883225445334,633.11877,mp-1174390,Li4Co3O7,https://materialsproject.org/materials/mp-1174390,5.023686813523494,96.06309051412809,1.6684432132527507,89.7618459940931
-9.186624517,-183.73249034,11.80379821628516,-0.3975112776666663,0.0,0.0,58,20,228.3035431223384,1622.8760000000002,mp-20391,B2Mo2Ir,https://materialsproject.org/materials/mp-20391,59.19887154844553,30.33898491681995,64.13169834594525,10.999399204417305
-6.719089127499998,-161.25813906,4.386171229399569,-1.627625326866666,27.0000002,0.0,8,24,264.33402687956954,698.215625,mp-773198,Mn5Fe3O16,https://materialsproject.org/materials/mp-773198,-11.415867548705387,69.44594057482284,0.9352990734718458,59.47816540859254
-4.885791928333333,-29.31475157,8.308204751050445,0.04184403583333385,4.6526239,0.0,216,6,85.5096659956188,427.832045,mp-1072398,MnCu4Sn,https://materialsproject.org/materials/mp-1072398,67.2640943722147,48.828807511085365,74.1052451554701,22.83662351968728
-8.089528421666666,-97.07434106,6.938543064808929,-0.3857551366666669,3.378633,0.0,194,12,180.43105798843212,753.9290771999998,mp-1215595,Zr2AlFe3,https://materialsproject.org/materials/mp-1215595,77.8912633170753,29.213189592445765,75.07813209831212,25.304591612465988
-7.9427828465,-317.71131386,3.773317514997592,-1.7463840672020001,0.0,4.412399999999999,141,40,352.7063077291191,801.4703999999998,mp-4644,Si2N2O,https://materialsproject.org/materials/mp-4644,5.353700857842084,61.38286581553064,8.601496399792838,50.55163902927744
-4.886330564166667,-58.63596677,10.60969567256749,-0.5169498186111117,0.0,0.0,62,12,205.12893774139832,1310.632,mp-22646,InPd2,https://materialsproject.org/materials/mp-22646,63.951043946673934,38.53283710346009,73.41053109288255,7.45345905377212
-6.433859805,-12.86771961,7.3276602097335966,-0.1104526899999998,0.5309749,0.0,221,2,35.072809036561964,154.77,mp-2210,ZrCu,https://materialsproject.org/materials/mp-2210,99.5659648703666,5.761631870300549,66.35860796514834,62.17310148843738
-8.174423322777779,-147.13961981,12.82744607889487,-0.5481124246296297,8.515e-05,0.0,86,18,233.2771943003583,1802.0357,mp-981396,Y(BIr)4,https://materialsproject.org/materials/mp-981396,53.55735665549693,19.43499509575723,48.607372409602796,8.970304159366721
-6.28884003,-25.15536012,3.9420988867265154,-1.971432275740001,4.0000005,1.2993,12,4,46.304631058745215,109.92661428,mp-755520,NaMnO2,https://materialsproject.org/materials/mp-755520,12.734890100407512,46.279408857928466,11.899522415946866,68.72286151073281
-5.69818089625,-91.17089434,7.1198783203391125,-0.5986922550000005,2.25e-06,0.0,63,16,290.2667183602271,1244.5739999999998,mp-1207393,Zr3Ga5,https://materialsproject.org/materials/mp-1207393,63.42192379628865,33.361796365222,71.45672704295968,6.967961743812594
-5.797139277857143,-81.15994989,5.164875451289691,-1.6753752085714284,3.0000007,0.0,227,14,140.22240906201486,436.14227719999997,mvc-4135,Al(CuO2)2,https://materialsproject.org/materials/mvc-4135,3.0076674347222383,66.95537995945087,11.972218595032613,54.09052978863415
-6.73884343,-40.43306058,5.690257311591853,-0.3348933276302084,13.134360699999998,0.0,71,6,116.36443530095171,398.75219,mp-1221987,Mn2CrSe3,https://materialsproject.org/materials/mp-1221987,23.175931260603086,23.45520307708445,59.92003797318775,-27.29685496052825
-9.228644774166666,-110.74373729,7.389584596114955,-0.11415308083333288,0.376120825,0.0,38,12,178.11520070531552,792.63258,mp-1215296,ZrMnCr,https://materialsproject.org/materials/mp-1215296,69.31082663287827,45.58256607386314,76.66093426433648,24.6919860154202
-9.0485845725,-36.19433829,11.30898672934515,0.014808560000000526,0.0015653,0.0,187,4,58.79510324929896,400.42,mp-1217414,Tc3Pd,https://materialsproject.org/materials/mp-1217414,65.33028050936092,63.20989277035494,90.00922107949799,15.259291065864053
-5.8355590416666665,-35.01335425,10.17232468668319,-0.4482400883333331,5e-08,0.0,227,6,91.37792441664844,559.7736,mp-421,DyNi2,https://materialsproject.org/materials/mp-421,80.1126394794089,29.074416438130665,71.27620247937874,26.61839950499113
-2.685359973333333,-16.11215984,1.3813409269927517,-0.16401047999999996,1.75e-05,0.0,63,6,98.24584189447243,81.7270772,mp-1210753,Li2Al,https://materialsproject.org/materials/mp-1210753,36.332603444091156,38.300695485773176,41.22039448805587,55.3419941641677
-3.551383335,-14.20553334,6.707682007565556,0.003570487499999775,0.00013130000000000002,0.0,166,4,94.31066145187788,380.9642,mp-1226747,CdSnAs2,https://materialsproject.org/materials/mp-1226747,25.84345280835196,7.381024680552497,11.957659486341775,-0.5527072180261638
-4.9138878625,-19.65555145,6.507026544998795,-0.8722930793750008,0.999984,0.0032000000000005357,12,4,39.36030547718863,154.23819999999995,mp-1178372,CuNiO2,https://materialsproject.org/materials/mp-1178372,19.896988389936947,57.229357214483784,47.29432218826522,27.497884717828594
-11.71624067,-46.86496268,18.48117130379737,-0.06684298812499813,4.2999999999999995e-06,0.0,44,4,59.27344332399303,659.691,mp-974455,Re3Ru,https://materialsproject.org/materials/mp-974455,61.90547903538062,61.2122210249881,84.87195130299106,12.856631822694993
-6.369889438897059,-866.30496369,8.455613231494365,-0.4622349008578434,2.5e-08,0.013100000000000556,61,136,1506.39884901216,7670.717599999999,mp-1201581,Tb2(Ni2B)5,https://materialsproject.org/materials/mp-1201581,56.067891104435866,30.41129177065785,61.840156771176694,8.453244754077332
-6.7955785252941165,-115.52483493,7.173833459478584,-0.6277228014705877,1.1e-06,0.0,69,17,233.4030455554316,1008.3439999999999,mp-569257,Ca3(B3Rh4)2,https://materialsproject.org/materials/mp-569257,53.29518543810976,18.960471961569308,48.71244084353589,7.591748772300775
-6.011231413636364,-132.24709109999998,4.308719325456349,-1.7271564830418191,8.9999999,0.7955000000000001,2,22,217.88649851573342,565.36567,mp-777381,Li2Mn(CoO3)2,https://materialsproject.org/materials/mp-777381,11.020272546720015,76.05398593947261,21.181504458040816,83.15282568114787
-5.601655399655173,-162.44800659,6.73963044109393,-0.4756976406896554,0.00014140000000000002,0.0,225,29,377.9255881112548,1533.8867300000004,mp-1207398,Zr6Be15Pd8,https://materialsproject.org/materials/mp-1207398,39.834232357652205,40.42714109320881,8.497963104903597,2.2899740808682982
-5.7858399825,-185.14687944,4.175835361254552,-1.850491019122499,25.1151996,0.0,1,32,287.5046678681805,723.001465,mp-1175942,Li9Mn2Co5O16,https://materialsproject.org/materials/mp-1175942,13.147531763643466,87.07534554270832,1.8652342520185148,94.5549559878668
-5.892312815714287,-82.49237942,5.8897112938452825,-1.3144138514285726,4.2059790999999995,0.0,166,14,137.08074221894458,486.207175,mp-761404,Co5CuO8,https://materialsproject.org/materials/mp-761404,-6.79728361790928,57.304876232650706,13.679962754655113,53.40390384572006
-6.1877619125,-24.75104765,12.242665433174515,-0.1882796437499996,2.22e-05,0.0,225,4,74.48774084588234,549.176182,mp-973544,Lu2BeOs,https://materialsproject.org/materials/mp-973544,88.20520464625227,-2.8295644011871,69.45824943582988,46.45115950337252
-10.646113392839506,-862.33518482,13.2420428277154,-0.03552245099308633,0.009212600000000001,0.0,8,81,1058.0384084757998,8437.3746,mp-674509,W43N38,https://materialsproject.org/materials/mp-674509,51.30111296073221,19.01757313538213,49.0348026905801,7.420402371401312
-5.870352440416667,-140.88845857,4.101963600348783,-1.9229536036216681,16.000000099999998,0.6955,2,24,213.441265109422,527.2554749999998,mp-1174545,Li7Mn2(CoO4)3,https://materialsproject.org/materials/mp-1174545,8.331623115770581,89.49706074498773,-1.289426842338354,96.80895680863293
-8.4311253475,-33.72450139,10.298593565454585,-0.5167198512500004,0.0003793,0.0,225,4,73.89510085367284,458.29432,mp-1184822,HoZrRu2,https://materialsproject.org/materials/mp-1184822,97.0665398698627,2.274987622417483,74.1318860258787,55.51742798668084
-8.7711486225,-35.08459449,10.47614328672876,0.15966945874999894,0.020738,0.0,139,4,58.476550265909424,368.9216,mp-972324,Tc3As,https://materialsproject.org/materials/mp-972324,57.687742901851976,61.96762091137693,86.41066983101575,11.439777532104564
-7.4224237475,-118.75877996,4.10315662849169,-2.89092547546875,1.99999995,0.7091000000000003,15,16,150.51216413508803,371.91235439999997,mp-773505,Al2CrO5,https://materialsproject.org/materials/mp-773505,3.6443755321621136,63.98754305801509,5.083940320354616,51.90658050925093
-8.168701120909091,-89.85571233,3.403572408453297,0.2232002981336362,0.0171755,0.0,155,11,113.07247238059536,231.7623,mp-1245833,Fe2(CN2)3,https://materialsproject.org/materials/mp-1245833,-24.511896399591066,57.91535602600099,-29.05751085258628,58.711384250253026
-6.8116027557142855,-95.36243858,3.2729854701518817,-0.34685027874999924,0.0,0.03589999999999982,194,14,164.31203423534373,323.8652556,mp-4798,Sc(AlC)3,https://materialsproject.org/materials/mp-4798,23.23815871240157,49.92167764142976,10.075845183756504,45.262991959940855
-3.4419340989999996,-34.41934099,5.301549051763733,-0.11261980716666713,0.0,0.06529999999999969,1,10,371.375971385607,1185.68,mp-1224051,In5SnSb3Te,https://materialsproject.org/materials/mp-1224051,25.507661162290844,15.8528047901844,65.44393810091968,44.14162291501236
-4.313644119782609,-198.42762951,3.0132185864443564,-0.12939341913043487,0.5571864000000001,0.0,227,46,753.5544621949463,1367.401944,mp-1196837,Ca(Al10Cr)2,https://materialsproject.org/materials/mp-1196837,55.211067306904326,48.76396588188489,78.14245336357456,4.865751148028242
-3.8064145175,-15.22565807,8.997256843919851,-0.3235847308333333,1.2e-05,0.0,225,4,77.08817909694446,417.68493860000007,mp-976931,LuAlAg2,https://materialsproject.org/materials/mp-976931,88.57107724728418,-8.045139611991976,72.87339060298861,44.715970950712624
-1.2653883999999997,-3.7961652000000004,7.2042695193590935,0.007438425000000137,3.9333333333333335e-06,0.0,166,3,45.22909551433156,196.22700000000003,mp-1187812,Zn,https://materialsproject.org/materials/mp-1187812,55.758963540417575,51.06304715989485,85.22121226393858,17.765387772967077
-6.121909159285713,-171.41345646,5.538780362902749,-1.924774267857144,0.0,1.5812,62,28,266.1548679407424,887.76796,mp-17544,Ca(CoO2)2,https://materialsproject.org/materials/mp-17544,18.78947711811538,55.69191770736439,3.6463399151098366,48.60897381620399
-10.669278136875,-341.41690038,15.165605027887112,0.2600038896874999,1.57990585,0.0,194,32,411.56564824455353,3758.80477,mp-1226205,Co3W9C4,https://materialsproject.org/materials/mp-1226205,60.84419116271189,32.814320646432755,68.88466389793643,16.17089410841361
-4.074616556363636,-44.82078212,2.7194591631448066,0.19855457545454608,0.0006095,0.0,12,11,182.00417174981686,298.06761580000006,mp-1207111,Mg2(AlSi2)3,https://materialsproject.org/materials/mp-1207111,58.33393127244865,47.55308554744095,74.01306364983733,6.573816602656585
-6.346088073076923,-82.49914495,3.078947462798617,0.26318697307692235,1.3948338,0.0,225,13,101.62165370084485,188.4254,mp-1104127,NiB12,https://materialsproject.org/materials/mp-1104127,34.822350194545606,39.18548223690343,57.58813836597805,31.71372617626778
-10.86480848,-43.45923392,18.87730825777664,0.6416870473437495,0.0363824,0.0,221,4,70.5234201077097,801.7230000000001,mp-20486,Pu3Ga,https://materialsproject.org/materials/mp-20486,51.04574300001491,33.9547787389365,55.450697199647294,35.9804480018773
-3.647672415,-14.59068966,14.487793091014176,0.16387309874999945,8e-06,0.0,225,4,70.94587111707773,618.9852070000002,mp-1186998,SiAu3,https://materialsproject.org/materials/mp-1186998,88.89685212907024,3.2287297547356157,57.53209303374588,67.64640664421742
-3.90165233,-46.81982796,2.6547389160449977,0.25000410000000056,6.675e-06,0.0,10,12,201.35093357071187,321.904,mp-1073669,MgSi2,https://materialsproject.org/materials/mp-1073669,58.3437285763906,47.57431601199657,61.72823318572649,3.937316055230164
-6.247645353333334,-599.77395392,3.6099764250210495,-2.232370337842501,35.0315119,0.9956999999999998,1,96,842.1640353655223,1830.846635,mp-777827,Li32Mn3Cr13O48,https://materialsproject.org/materials/mp-777827,-10.846819025152982,98.64900848450013,-12.620422977513769,96.51710493173486
-5.851170224375,-93.61872359,4.486387796930427,-1.811820583185,11.7876977,0.0,2,16,143.42353876129303,387.49683,mp-1174093,Li4MnCo3O8,https://materialsproject.org/materials/mp-1174093,14.686611585006197,79.92798826916943,22.806429781056572,81.5805164837207
-6.120576056749999,-244.82304227,8.551196815998512,-0.09245508025000007,0.0001672,0.0,8,40,888.5941679966729,4575.95,mp-1219530,Sb28(Mo3Ru)3,https://materialsproject.org/materials/mp-1219530,47.786986497119045,-5.936740108474744,50.493763198978044,2.721908205103592
-5.3645286225,-21.45811449,11.575670160655346,-0.6910356550000003,9.4e-06,0.0,225,4,45.836596537862285,319.528364,mp-864961,Be2PdPt,https://materialsproject.org/materials/mp-864961,35.769688671049884,48.40964419739401,12.171165880512113,-1.1360938847199924
-5.594379084500001,-111.88758169,3.5996985093060587,-1.5315692657500009,2.9999995999999998,0.3341000000000001,15,20,204.4187741163152,443.1368,mp-752521,LiFeO3,https://materialsproject.org/materials/mp-752521,-6.843970893859953,84.12758584994518,-11.511668512067175,98.6156219299417
-5.138744,-35.971208000000004,9.785879562649608,-0.4854110110204084,0.0264385,0.0,123,7,106.6455146506483,628.4827620000002,mp-1025258,ZnPPd5,https://materialsproject.org/materials/mp-1025258,56.75357969945272,42.39518631903339,77.30840868232757,11.515226779398027
-4.5441605575,-18.17664223,12.411058413121284,-0.050270716249999126,0.0015821,0.0,225,4,69.92203841724289,522.6053,mp-866188,TlCdRh2,https://materialsproject.org/materials/mp-866188,95.97799394812552,5.064242992016091,65.22559391709629,65.1076908965461
-10.064109425,-20.12821885,14.554964117554242,0.4763559356249996,2.78e-05,0.0,221,2,22.014156311558427,192.95858,mp-1009835,TaC,https://materialsproject.org/materials/mp-1009835,35.35657134628502,49.17848658271672,58.82228010266129,-28.586888755054822
-6.8600444337500015,-164.64106641,4.39876164746633,-1.695598623156667,13.00000205,0.0,186,24,263.23505619642464,697.30867,mp-756788,Mn3FeO8,https://materialsproject.org/materials/mp-756788,-11.369075215050108,69.46235575526215,0.995273369194883,59.36280885704278
-5.825528890357143,-163.11480893,4.160856812378727,-1.8850156955150013,10.000000199999999,0.9219999999999996,1,28,249.47992114562192,625.12847,mp-1174594,Li4MnCo2O7,https://materialsproject.org/materials/mp-1174594,10.044700201520405,89.34547284072683,5.689703257140317,96.88094831540856
-5.6417753775,-67.70130453,3.5710092519680696,0.1577545113888886,8.025e-06,0.0,63,12,223.27519393874957,480.156,mp-1094384,MgTi2,https://materialsproject.org/materials/mp-1094384,46.47659353672422,31.207542575212674,48.015641067301395,34.32261339183775
-3.097448895714286,-43.36428454,10.486118244839037,-0.28194353638095243,0.0,0.0,140,14,334.63794040240083,2113.201152,mp-21134,K(InAu2)2,https://materialsproject.org/materials/mp-21134,53.7858007770767,17.170069744297024,50.325225451938316,5.543444733890866
-4.081692047826087,-187.7578342,2.8954215087786235,-0.10115857652173857,1e-07,0.0,227,46,759.9801800211145,1325.1497896,mp-3778,Mg3(Al9Cr)2,https://materialsproject.org/materials/mp-3778,55.172835592224686,48.828961168496114,78.12454805593532,4.8705292102457935
-5.7854134865625,-185.13323157,4.194198495799342,-1.850064523184999,21.997013600000002,0.018299999999999983,2,32,286.24590844046,723.001465,mp-1175721,Li9Mn2Co5O16,https://materialsproject.org/materials/mp-1175721,4.6845282266898085,98.07131290758778,3.2481215296256267,87.5035089257058
-6.188624985,-12.37724997,11.734465732742612,0.07391494999999981,3.4e-06,0.0,166,2,29.621558640512518,209.3255,mp-1219925,PdRh,https://materialsproject.org/materials/mp-1219925,65.430983708564,63.050440206268476,89.8102248210199,15.854492160536575
-4.7442674225,-18.97706969,3.5848261713554392,-0.34333857000000023,1.83e-05,0.0,225,4,77.16013152391795,166.575824,mp-1185424,LiSc2Ga,https://materialsproject.org/materials/mp-1185424,84.7908685779074,-4.2573509493205615,68.59279349247011,45.135730788028404
-6.3702000925,-25.48080037,5.925216788720659,-0.2961056437499998,0.0012374,0.0,225,4,70.99303416167379,253.320824,mp-862264,Sc2ZnTc,https://materialsproject.org/materials/mp-862264,94.11337158419487,-0.4241379240590664,70.39427004986597,54.750431131676166
-5.555581431666668,-33.33348859,11.347881646562598,-0.07746355583333417,4.5e-06,0.1615000000000002,216,6,87.59813933950537,598.6329099999998,mp-1071877,UCu4Pd,https://materialsproject.org/materials/mp-1071877,72.38320215392395,49.52531494183886,71.2971524178549,23.071330519197158
-6.123010093333334,-73.47612112,3.689894411532188,-2.127411762868333,3.0000005,0.8438000000000003,2,12,105.14190097176045,233.63648999999998,mp-1173930,Li2MnO3,https://materialsproject.org/materials/mp-1173930,1.8505543512553702,91.8097855229217,-5.371518829869509,93.93643274432921
-8.793231395,-35.17292558,7.731076916470082,0.09347840500000082,0.0039532,0.0,225,4,69.70905754153877,324.54888,mp-1187253,TaTi3,https://materialsproject.org/materials/mp-1187253,87.92753661057257,4.097995018030558,56.412269475410966,68.68754639430885
-7.753013025,-93.0361563,4.345847777005605,-0.7833388195233333,1.9999999,0.3769000000000009,36,12,120.07370684288018,314.2485900000001,mp-1246895,CoSi2N3,https://materialsproject.org/materials/mp-1246895,19.05911476754987,51.10290461287725,44.40218970192483,31.408359317871057
-7.362911785,-14.72582357,3.3553171570681832,-1.4917460835714285,0.0,0.0,225,2,37.577427727172925,75.929674,mp-2807,ScP,https://materialsproject.org/materials/mp-2807,22.93435326701725,23.701374213995226,60.18925887886708,-27.36367046484137
-5.3645748125,-21.45829925,6.312316209590152,-0.16411973374999975,0.0066688,0.0,221,4,68.19220196565348,259.2235,mp-973668,LuSi3,https://materialsproject.org/materials/mp-973668,45.72872876554781,36.920493207743725,14.055849983389235,-12.6303243406614
-8.07256494,-48.43538964,6.976669123367704,-0.36879165500000016,3.4658627,0.0,166,6,89.72251972567791,376.9645386,mp-1215552,Zr2AlFe3,https://materialsproject.org/materials/mp-1215552,77.90215448820949,29.175499917287674,73.53176473238416,25.509355300131922
-9.216562555,-221.19750132,9.897300941398916,-0.1869835237299995,0.028659325,0.0,198,24,311.45557381871134,1856.3668,mp-1225051,FeMo3PdN,https://materialsproject.org/materials/mp-1225051,63.21225091256309,41.388267793760654,74.13461462482037,5.961013865237375
-3.5567181075,-28.45374486,6.7455174212071265,-0.2448994388802084,7.15e-05,0.0,119,8,189.0960011366353,768.1543999999999,mp-1223987,InAg2SbSe4,https://materialsproject.org/materials/mp-1223987,25.349848872487318,7.431674422934987,11.839757951328284,-0.45867318817945796