energy_per_atom,energy,density,formation_energy_per_atom,total_magnetization,band_gap,sgr,num_sites,cell_volume,weight,mp_id,formula,URL,tsne_cry_0,tsne_cry_1,tsne_xrd_0,tsne_xrd_1
-4.898759388999999,-48.98759389,5.598935124362283,-0.16142029800000018,2.99470705,0.0,148,10,300.99204067892026,1014.8722,mp-541449,CrGeTe3,https://materialsproject.org/materials/mp-541449,16.893657930590773,11.168339700185658,-7.283804039310842,-22.514837643408022
-5.078542263,-50.78542263,5.007806383718786,-0.18068898000000005,2.9999999,0.5246000000000004,148,10,306.97391584331933,925.7632,mp-3779,CrSiTe3,https://materialsproject.org/materials/mp-3779,1.220757173434845,-0.5672118191471771,-7.279785306356658,-22.43490132905055
-3.190201816666667,-38.2824218,5.3745746271791175,-0.2898670291666671,0.0,0.7904999999999998,15,12,327.18501675445424,1058.9816,mp-28900,Cd2As3Br,https://materialsproject.org/materials/mp-28900,17.133153256702816,11.155240649402623,-2.9565010601258015,-17.134155590837544
-5.242663682,-78.63995523,6.476455322254047,-0.1770627959999994,11.3378203,0.0,44,15,363.93462043217943,1419.4224,mp-675546,Cr4Cu3Te8,https://materialsproject.org/materials/mp-675546,17.61069016075855,10.932271872280653,-21.32394446102453,-73.654846922029
-4.139158348571429,-115.89643376,3.8686430744340257,-0.9117319584821424,0.000500375,2.125,62,28,673.9526079761491,1570.1419999999996,mp-1192582,Mg2SiSe4,https://materialsproject.org/materials/mp-1192582,-2.0609824886517454,-3.7150681829844063,8.406659634258867,-53.66041133259942
-3.7017923595454554,-81.43943191,5.396807569986957,-0.3635372237784089,4.5e-07,0.4323999999999999,9,22,610.3151789784772,1983.5448,mp-505607,In2Ag2GeSe6,https://materialsproject.org/materials/mp-505607,16.237349419677898,11.85772204528232,-9.788150685968061,-15.280518727869945
-5.346585057857141,-74.85219081,6.4163756143410815,-0.21196212785714252,5.3626265,0.0,227,14,350.8968038876053,1355.8764,mp-22625,Cr2CuTe4,https://materialsproject.org/materials/mp-22625,17.889003995994123,10.872424309222868,-21.298741151146565,-73.46069329301461
-2.800798536111111,-151.24312095,5.714368288625092,-0.08845012851851823,3.065e-05,0.0,223,54,1544.4917865849093,5315.018,mp-1214704,Ba4Cd11Ge12,https://materialsproject.org/materials/mp-1214704,16.459069425631426,11.563252396026328,14.445246889431354,-46.85657129899529
-4.6051627716666665,-55.26195326,4.65251926418271,-1.4211462278313576,0.0,2.1117,63,12,374.1151676170937,1048.2006038,mp-574620,CsYZnSe3,https://materialsproject.org/materials/mp-574620,10.13479872358485,0.9014034749576022,-4.129263143614291,-20.69772094323937
-3.846097905,-53.84537067,6.453189855245969,-0.3575795767187501,0.0,0.2283999999999997,3,14,338.7029438357364,1316.2679999999998,mp-1228010,BaCu6Te6S,https://materialsproject.org/materials/mp-1228010,16.27823970202913,11.817788100036873,14.443277619539526,-46.90718406753177
-5.405220929411764,-275.6662674,4.09399517133066,-1.424932804607843,0.9998925999999999,0.02950000000000008,160,51,1417.8904207173828,3495.754328,mp-1219646,Sc19(RuBr7)4,https://materialsproject.org/materials/mp-1219646,16.928069879710247,2.6208636374436933,-1.4858302162668668,-17.29810574803473
-3.783653760714286,-52.97115265,6.5604709181327685,-0.2933439413281249,0.0,0.2363999999999997,3,14,345.03397814432776,1363.1629999999998,mp-1228039,BaCu6Te6Se,https://materialsproject.org/materials/mp-1228039,16.27268155405014,11.817665645846159,14.469589326757855,-46.90694146321308
-5.038373707777779,-45.34536337,5.195967250284644,-0.4528501244039352,9.912237300000001,0.0,166,9,234.67312903525232,734.3120899999999,mp-1222074,Mn2In2Se5,https://materialsproject.org/materials/mp-1222074,17.012519757162377,11.239020651263829,-8.52558322193048,-15.162763054252435
-3.59799355875,-28.78394847,5.390145613069638,-0.4773146847135417,1.025e-06,1.0457999999999994,12,8,238.78830531991628,775.112,mp-21405,InSe,https://materialsproject.org/materials/mp-21405,15.866894970326257,12.205101386031927,-8.937856675790325,-14.918897457167086
-3.98071241,-95.53709784,4.738505992177206,-0.4322420149999999,3.0000056,1.0587,151,24,909.8197223181637,2596.2570600000004,mp-1213805,CrI3,https://materialsproject.org/materials/mp-1213805,1.1725655943022348,-0.4754294480114554,-19.421815522473107,-15.977319118643827
-3.83309099590909,-84.32800191,5.288208087291256,-0.4218748637784092,0.0,0.4724999999999997,9,22,594.8677799259931,1894.4358,mp-640614,In2Si(AgSe3)2,https://materialsproject.org/materials/mp-640614,16.245003693655327,11.838095312813678,-9.82898579463536,-15.284656739595576
-3.807791985,-15.23116794,5.2757998627262905,-0.6804497395312503,1.01e-05,0.4255,160,4,90.27436782985428,286.8162,mp-1097000,InAgS2,https://materialsproject.org/materials/mp-1097000,17.911664775120187,10.193544849723413,-8.427708141791287,-15.354486527343418
-2.924891448888889,-105.29609216,4.67563963292594,-0.8431952655627397,0.0,1.4123,62,36,1170.5764832346456,3296.0344,mp-16818,Rb2Cd3Se4,https://materialsproject.org/materials/mp-16818,10.379233603883971,2.232494382320688,-31.83210065587462,-31.92475300212339
-3.1631883763636366,-69.59014428,5.322976413899611,-0.5069447315056821,0.0,0.7534000000000001,9,22,621.4455293240953,1992.088,mp-18163,Cd4GeSe6,https://materialsproject.org/materials/mp-18163,16.210425034330086,11.902870457121976,-9.766549327317668,-15.273136385361074
-5.835065575000002,-70.0207869,4.47234314766347,-1.3366452919980247,4.9999997,0.5653999999999999,63,12,381.4115126934044,1027.2586938,mp-1213646,CsYMnSe3,https://materialsproject.org/materials/mp-1213646,10.165404226458538,0.8637487681214778,-4.192084626746047,-20.692022476676904
-4.364013175833333,-157.10447433,5.547926544745878,-0.21058251404162026,7.5e-08,0.046700000000000415,62,36,866.9941163918539,2896.661600000001,mp-1246310,In4Se3N2,https://materialsproject.org/materials/mp-1246310,-0.3392303614555306,-2.6579866055312737,-29.44937851145268,-36.855451977594015
-4.832919063333333,-57.99502876,4.993405509401412,-0.2723457967241381,6.00000005,0.0,63,12,385.7257603610715,1159.9155999999996,mp-15121,RbFe2Te3,https://materialsproject.org/materials/mp-15121,-2.593956613532709,-1.427436568079537,-16.87461564364417,-72.78868613873684
-3.08507480875,-24.68059847,5.923699174569057,-0.24540591874999995,0.0,0.5268000000000002,2,8,273.49768306583474,975.6578800000001,mp-573321,TePdI2,https://materialsproject.org/materials/mp-573321,16.130096695047435,12.07245820679784,-10.769324113753084,-15.295308773275789
-3.671332310357143,-102.79730469,5.5038410980176655,-0.0936777539285712,0.0,0.04850000000000021,62,28,720.6517871532878,2388.5936,mp-5712,Cd2GeAs4,https://materialsproject.org/materials/mp-5712,16.327627713672896,11.895727073711214,-9.662814681811279,-15.386742820643153
-4.490516145833333,-53.88619375,4.786702401054793,-1.3661816803313571,0.0,2.0855,63,12,396.2384074388419,1142.2046038,mp-11116,CsYCdSe3,https://materialsproject.org/materials/mp-11116,10.185942526913284,0.81083729696597,-3.6499829120607328,-20.518673445071325
-5.2330796603125,-167.45854913,6.1427293639507985,-1.6491865527604168,4.12625e-05,1.5053,4,32,728.644129344588,2695.42816,mp-1199297,HoAgS2,https://materialsproject.org/materials/mp-1199297,18.556152082943353,9.32961536542906,-6.437558370188548,-21.652728897689734
-5.2522879309375,-168.07321379,5.893246068156627,-1.6560440971354176,0.0,1.6510000000000002,4,32,745.9542230888394,2647.3884,mp-1208370,TbAgS2,https://materialsproject.org/materials/mp-1208370,18.51806018208765,9.254591968152894,-6.4661013714848306,-21.68860924730891
-7.6235175003125,-243.95256001,5.7580922814006055,-1.6632877015104173,7.000000175,0.9583,4,32,759.5980935779527,2633.9856,mp-1200242,GdAgS2,https://materialsproject.org/materials/mp-1200242,18.46602630268746,9.200950364921312,-6.477833582456702,-21.69925932029927
-5.1540384207142855,-72.15653789,6.275920634701513,-0.200932447380952,5.497641099999999,0.0,227,14,382.2041931551792,1444.5208,mp-20118,Cr2AgTe4,https://materialsproject.org/materials/mp-20118,17.303364807896706,10.726476439845213,-8.460968857803199,-15.322854787285616
-3.995515262692308,-103.88339683,4.855719412617853,-0.8599706648798071,0.0,0.3184999999999993,11,26,624.6962768278403,1826.726,mp-555853,In6S7,https://materialsproject.org/materials/mp-555853,-0.019317211626263056,-3.056264453768155,-6.992585116782244,-19.015929079585465
-3.0737119295,-61.47423859,5.913796465368175,-0.5287239795000002,0.0,0.0,62,20,574.6830908890294,2046.66,mp-14207,Ba(ZnSb)2,https://materialsproject.org/materials/mp-14207,18.603264268778997,-37.48270653427711,17.18375539308393,-41.4588868865117
-3.100785570833333,-37.20942685,5.668718038458485,-0.2187767066666666,0.0,0.7475999999999998,15,12,337.7434734130819,1152.98254,mp-27577,Cd2As3I,https://materialsproject.org/materials/mp-27577,15.816955144102913,2.919635819416697,-3.602522049648183,-14.917680824444053
-4.825971762857144,-67.56360468,5.9258484576366595,-0.23154521071428544,7.966790700000001,0.0,227,14,384.2848392869674,1371.3701800000001,mp-1104014,Mn2ZnTe4,https://materialsproject.org/materials/mp-1104014,17.54907530958067,10.43119906927988,-8.440248398981911,-15.318287540413182
-5.607164227857144,-78.50029919,4.03117499245754,-1.5746775541964289,0.0,1.0918,227,14,354.3017343611042,860.113648,mp-1001019,Mg(ScSe2)2,https://materialsproject.org/materials/mp-1001019,18.0273629148422,10.858198381058171,-21.388570604542085,-73.41226496156263
-4.147535211111111,-37.3278169,3.7657170219374247,-1.0194937292187505,0.0,1.0990000000000002,164,9,219.3227497775742,497.3730772,mp-29624,Mg2Al2Se5,https://materialsproject.org/materials/mp-29624,-0.9535284700969492,9.138600759433936,-21.16772737438612,-73.32401090432295
-4.090277017,-122.70831051,4.533450668642502,-0.6965850668229171,0.00050045,1.6052999999999995,169,30,832.2298444898864,2272.0772316,mp-862787,AlInSe3,https://materialsproject.org/materials/mp-862787,15.249029026751135,12.268792384242765,-9.822853033026028,-15.245669076717098
-5.1474285680000005,-25.73714284,5.472823075859786,-0.2844633036000005,5.7997575999999995,0.0,139,5,123.18312004400411,405.9883,mp-1068789,K(FeTe)2,https://materialsproject.org/materials/mp-1068789,18.11489747537129,10.94770073378613,24.67266922871091,-41.08533974941133
-5.21680217875,-41.73441743,6.408094666664049,-1.6355717186979173,5.5e-07,0.7083999999999997,141,8,175.82443909005443,678.5144,mp-36029,ErAgS2,https://materialsproject.org/materials/mp-36029,18.683833025681515,9.618251029951589,28.551877678556984,-40.99666431775644
-4.042398742222222,-109.14476604,4.213034713098148,-1.0874876134063696,6.666666666666667e-08,1.1800000000000006,10,27,697.9253113589799,1770.7404,mp-542654,RbIn3S5,https://materialsproject.org/materials/mp-542654,-0.6587204736022024,-3.0900877630935133,-27.860315926067706,-45.758634562330705
-4.0893440902631575,-155.39507543,4.259826915983641,-0.6106929424954629,10.99999975,0.20310000000000009,15,38,1436.4282178920962,3684.9092,mp-1194713,Rb7(FeTe2)4,https://materialsproject.org/materials/mp-1194713,-2.464396458560254,-1.6510609049450315,-31.100881959477192,-32.07918996803444
-3.8118417807142855,-53.36578493,4.796001681398048,-0.510687475083128,0.0,1.1420000000000001,2,14,479.37172890569116,1384.5309037999998,mp-3312,Cs(SbSe2)2,https://materialsproject.org/materials/mp-3312,-0.10418401206514456,-3.27951652798427,-21.34521006974618,-31.25327883768848
-5.787696126428571,-162.05549154,4.568849580743953,-0.4017227934821425,9.999999775,0.08139999999999993,62,28,659.7330407068215,1815.2063600000001,mp-17367,Mn2SiSe4,https://materialsproject.org/materials/mp-17367,16.25710690049784,23.883848056182817,8.545706603620554,-53.480333484216175
-5.685777624615384,-73.91510912,6.157725176739009,-0.7146270241025646,1.9313016,0.0,12,13,339.8175954774489,1260.135,mp-1208221,Ti5Te8,https://materialsproject.org/materials/mp-1208221,19.93958039375416,9.602163744928943,27.116833354394746,-40.345894424548135
-3.8005886071052633,-288.84473414,4.587131123612954,-0.5568641203513538,0.0,1.2258,220,76,1709.591044318444,4722.634096000002,mp-560328,Ag15P4S16Cl3,https://materialsproject.org/materials/mp-560328,-1.5465319952325367,-2.709369222988029,-15.055545261834324,-69.1435328843084
-6.004009092857142,-42.02806365,6.501455361665503,-0.3172553014285719,6.9783913,0.0,12,7,169.39440683206553,663.2245,mp-1028,V3Te4,https://materialsproject.org/materials/mp-1028,20.080924704368233,9.440263468748164,26.98169015655096,-40.22373799327336
-5.853644392307693,-76.09737709999999,6.407814861695387,-0.2134259046153849,14.151995900000001,0.0,12,13,331.90503593264117,1280.7804999999996,mp-1213754,Cr5Te8,https://materialsproject.org/materials/mp-1213754,20.126350513210106,9.862343841220554,27.06993260352999,-40.527599110096055
-5.7124675996875,-182.79896319,4.5903879971667,-1.6562439008854168,0.0,1.7846999999999995,4,32,755.0409437921485,2087.2324,mp-1207671,YAgS2,https://materialsproject.org/materials/mp-1207671,18.406680586637755,9.080468934978233,-6.5178969440271795,-21.716740562930216
-4.665357361666667,-55.98428834,6.510115747904698,-0.4115311477777777,0.0,0.0,12,12,284.5358301684434,1115.518,mp-541754,TiCu2Te3,https://materialsproject.org/materials/mp-541754,17.024067477991533,11.143669914781887,-9.543829072746279,-15.355398331227702
-3.203059709583333,-76.87343303,3.641964662822806,-0.576134454583333,5e-08,2.5973,14,24,847.8697944768049,1859.584,mp-541610,GeBr2,https://materialsproject.org/materials/mp-541610,-0.4176119104711816,-1.5697533654428089,-31.472229984312,-32.414851380264174
-3.804503216428572,-53.26304503,4.6184613237598535,-0.9502893833972628,0.00268855,0.7221000000000002,166,14,337.3615103342137,938.3044,mp-1224076,In2AgS3Cl,https://materialsproject.org/materials/mp-1224076,-0.2161260723388965,-1.9860742660005888,-21.603102712546292,-76.29470997093178
-5.954767834285714,-41.68337484,6.466625893764223,-0.4368823266666664,4.0060887,0.0,12,7,169.51728231457952,660.15,mp-1025282,Ti(VTe2)2,https://materialsproject.org/materials/mp-1025282,19.9108850989763,9.612937864272174,26.83781045852426,-40.270571370363896
-5.536029606666666,-99.64853292,4.023360574680425,-0.7061617883405171,15.00000065,0.4219999999999999,72,18,537.8539521612212,1303.17947,mp-4052,Rb2Mn3Se4,https://materialsproject.org/materials/mp-4052,-5.425251603561233,-3.537607502457936,-15.059709318374615,-69.08492816047612
-3.107467404,-139.83603318,4.251337824099673,-0.1989916181494247,0.0,1.1263,42,45,1692.0001843556365,4331.8851342,mp-619101,Cs6ZnGe8,https://materialsproject.org/materials/mp-619101,-0.6234190601964827,-4.2665213039683785,-26.181465238040023,-33.57045628216527
-5.62128147,-78.69794058,6.542885380508333,-0.21486793357142836,15.0127615,0.0,8,14,376.92429673942223,1485.1637999999996,mp-1216689,TlCr5Te8,https://materialsproject.org/materials/mp-1216689,19.884199890495946,9.88550284342042,27.22935279573433,-40.548812606719814
-3.310783790869565,-228.44408157,5.61391574034436,-0.3709323070350244,0.37219990000000003,0.0,1,69,1912.7126442052186,6466.459,mp-703302,Cd9(InSe2)20,https://materialsproject.org/materials/mp-703302,16.44585409439332,2.562048537506875,-2.1917787050176654,-17.679955291552538
-3.496763746,-34.96763746,4.866045647419454,-0.7767772606250002,5e-08,1.5330000000000001,12,10,258.1250621667521,756.41,mp-559588,CdSbS2Br,https://materialsproject.org/materials/mp-559588,17.068710140735146,5.51545932706167,-2.774994838833292,-17.08776895408672
-3.670809168484849,-121.13670256,4.748613661117295,-0.5937346987660987,0.0,0.8127999999999997,148,33,1033.7696862133184,2956.2526,mp-675614,K2In12Se19,https://materialsproject.org/materials/mp-675614,15.405983769480367,12.348886829501454,-10.620095997640757,-14.943738674986573
-3.295438601818182,-72.49964924,5.173558064228317,-0.5662339605965908,0.0,0.8187,9,22,610.7925884990523,1902.979,mp-17791,Cd4SiSe6,https://materialsproject.org/materials/mp-17791,16.207852880316068,11.887855095180905,-9.764482452488824,-15.230601520188989
-3.05618992075,-122.24759683,3.9402150667460263,-0.3925047148879312,1.25e-08,1.0309,62,40,1632.3930628416474,3873.4288,mp-29371,Rb2GaSb2,https://materialsproject.org/materials/mp-29371,-0.5533371651388829,-4.202306122435118,-30.3615922167487,-32.28366666131732
-3.9801143509375,-127.36365923,3.822554855833464,-0.2421745209374997,4.975e-06,0.0,73,32,638.6308522302693,1470.1259088,mp-1201040,LiAlAs2,https://materialsproject.org/materials/mp-1201040,15.878378858088231,11.987465325858658,-2.9434053147155583,-15.350508646803648
-5.8850522466666675,-141.24125392,3.742029428284516,-1.1154298051388896,0.0104398625,0.0,1,24,510.3890636282067,1150.1632,mp-667198,TiBrO,https://materialsproject.org/materials/mp-667198,-2.149754678425423,-3.1339754869493404,-29.833991595452737,-37.43336351407573
-3.35057940625,-80.41390575,4.544177383291727,-0.4035691941247605,0.0,1.3113,19,24,813.5938553590421,2226.4546076,mp-18105,CsAgSe4,https://materialsproject.org/materials/mp-18105,-5.790365950923116,-3.0932000258254844,-32.38827358950443,-46.141484301221816
-3.0638643185000003,-61.27728637,4.944995820007878,-0.10061810898958327,2.5e-08,1.3964,53,20,633.5274692741714,1886.61068,mp-569052,AgSe3I,https://materialsproject.org/materials/mp-569052,-0.4165565284890285,-1.7426852701800355,-29.60898745874033,-36.39064572269819
-2.658415719305556,-191.40593179,4.916834365649907,-0.5066856686706349,0.0,1.3981000000000003,205,72,2029.873271643834,6010.4281919999985,mp-28914,Cd4P2Br3,https://materialsproject.org/materials/mp-28914,15.59820280483392,2.6007167715514745,-7.437731978362455,-15.083877161699178
-3.7162425943333326,-111.48727783,5.0377962034289885,-0.521799612822917,7.759999999999999e-05,0.9903,169,30,922.6272753042613,2799.0959999999995,mp-612740,In2Se3,https://materialsproject.org/materials/mp-612740,15.513023469282055,12.691886294376008,-10.459693793184288,-14.644080894610694
-7.810757423888888,-140.59363363,5.390778569856819,-3.0512709713888904,0.0,2.1741,15,18,262.32323451010427,851.60688,mp-556104,La2CrO6,https://materialsproject.org/materials/mp-556104,-10.915762158058635,-59.71390072212333,-19.837177484818056,-55.674595612769956
-3.98794137,-39.87941370000001,4.572880805412276,-0.2678082230000001,0.0,1.2468999999999992,162,10,318.0031769312361,875.7340771999999,mp-31220,AlSiTe3,https://materialsproject.org/materials/mp-31220,2.0019614718683334,-3.680276134448312,-32.375785556333064,-12.895275180503534
-4.060427070689655,-117.75238505,4.1641787891360575,-0.2892075321839082,0.036246,0.0,12,29,853.1653546022267,2139.5059,mp-1211883,K5In4(Ge3As7)2,https://materialsproject.org/materials/mp-1211883,14.385038926593547,22.728108694066357,-32.93999456275627,-32.93634850181579
-3.7981011370370372,-205.09746140000001,3.790079777927149,0.0968063677037039,3.235e-05,0.0,40,54,1387.0705001315216,3165.904400000001,mp-1225988,K4In9Si14,https://materialsproject.org/materials/mp-1225988,0.6662982032166319,-1.801981745547769,-29.526669872541717,-35.15998198305185
-4.709921414,-47.09921414,5.496406388815925,-0.3529907054374995,5.00000005,0.5335000000000001,12,10,278.8644433409822,923.0450300000001,mp-570268,MnSbSe2I,https://materialsproject.org/materials/mp-570268,16.507757964237882,2.6044053983157505,6.499595581598824,-10.465008314720857
-3.2419178575,-25.93534286,4.881189693139159,-0.5784427486250001,0.0,0.2145999999999999,140,8,236.71390469253052,695.82553856,mp-10164,NaGaTe2,https://materialsproject.org/materials/mp-10164,10.741964639859734,2.514334964530666,-18.931112373981083,-16.077878128184462
-4.25100017,-29.75700119,3.5957085713293284,-0.9569231749107142,0.0,1.0608,166,7,182.00358432496415,394.1080772,mp-9479,Mg(AlSe2)2,https://materialsproject.org/materials/mp-9479,-0.9305491547725504,9.172290743689562,-8.651642925946508,-77.35486365009655
-4.773529998571429,-200.48825994,4.325548310287452,-1.0555720054828617,1.045e-05,1.5144,15,42,1467.0270009569253,3821.4676152,mp-768674,Cs4Zr3Se14,https://materialsproject.org/materials/mp-768674,-0.2335032773944452,-0.8177856105564858,-28.86788685417241,-36.99350918448216