energy_per_atom,energy,density,formation_energy_per_atom,total_magnetization,band_gap,sgr,num_sites,cell_volume,weight,mp_id,formula,URL,tsne_cry_0,tsne_cry_1,tsne_xrd_0,tsne_xrd_1
-4.974704160416667,-119.39289985,7.072494130957133,-1.254210003750001,7.085e-05,2.3974,29,24,375.5509389199115,1599.5298799999996,mp-1191266,BiIO4,https://materialsproject.org/materials/mp-1191266,-25.362627312431396,-61.7110028723945,-16.179202482850386,-64.65466191799645
-7.139012352333332,-214.17037057,4.365127241762944,-3.291317042873,0.0,5.0419,82,30,436.1224078581684,1146.4529031999996,mp-1192490,K5Pr4Si4O16F,https://materialsproject.org/materials/mp-1192490,-20.559402343842994,-28.24229872625677,-17.42713805951773,-29.30610217663975
-7.100750833947368,-539.65706338,2.653355319139957,-2.8278564964188586,0.0058732,4.4938,1,76,958.0639402596884,1530.87882352,mp-1224320,K3Na9Sr4(BO2)20,https://materialsproject.org/materials/mp-1224320,-24.715671997251878,-1.8450222386702797,-33.59375263852003,-35.29118923115065
-2.500147428571428,-70.00412800000001,4.123827057197639,-1.2700717603448273,0.000435425,2.4657,14,28,1266.0198759613215,3144.0676152,mp-1183950,Cs2HgBr4,https://materialsproject.org/materials/mp-1183950,-6.844136709831524,-7.9092507737650575,-41.76463644377355,-33.667844757685074
-2.9645658175,-11.85826327,5.687300879065026,-0.15539006249999998,0.0,1.6333999999999995,164,4,111.21283974458522,380.90094,mp-570081,CuI,https://materialsproject.org/materials/mp-570081,15.712807802193296,14.344394361823554,4.493531710648184,-16.30908765183223
-4.347877780326087,-400.00475579,3.1492366013926834,-0.972664670570434,2.5e-08,0.11429999999999985,14,92,1863.2378593430335,3533.6578799999997,mp-699471,Mo3H9I3(ClO)4,https://materialsproject.org/materials/mp-699471,-2.8348952338892186,7.221620176159465,-11.606570393390314,-9.098683815790316
-4.42319345203125,-283.08438093,4.7813455263007265,-0.7056030465039065,0.0,0.6025,61,64,1563.7389624233026,4502.62,mp-29267,Sn5Sb2S9,https://materialsproject.org/materials/mp-29267,3.607604271446309,-5.675494717298031,-17.44577214577538,-34.73024436892183
-3.734503646,-149.38014584,5.064016803439258,-0.2741158280000001,0.00011855,1.0895,2,40,1444.4438159337274,4405.008,mp-622262,Te6MoBr3,https://materialsproject.org/materials/mp-622262,18.031971245451103,1.5135652832826625,0.4789121042997286,-16.798121774018668
-4.734095935454546,-104.15011058,6.601151691093022,-1.1161970726523316,0.0,1.5657,1,22,527.3576181672296,2096.4081837999997,mp-672258,CsHo2Cu3Se5,https://materialsproject.org/materials/mp-672258,31.93125362930403,-3.5527294469710493,2.9685687718867837,-21.316770310432364
-4.724454169545455,-103.93799173,6.687072710957695,-1.108491777652331,6.5e-07,1.5196999999999998,63,22,522.8947314199744,2105.7229038,mp-542482,CsEr2Cu3Se5,https://materialsproject.org/materials/mp-542482,31.93405580581904,-3.553605957473768,2.968752897513782,-21.31216903363498
-3.2777680833333336,-98.3330425,4.315584102917112,-0.7363813721880007,6.645e-05,1.3417,2,30,957.5388431929463,2488.553,mp-1193541,Te7RhCl7,https://materialsproject.org/materials/mp-1193541,17.9384324677962,1.8380934475125703,-0.7334615747034956,-21.83630075293603
-6.147041099999999,-92.2056165,8.55448857875626,-1.9833375714166663,0.0,1.5238999999999994,8,15,257.74389133013244,1327.80207,mp-753069,LaBi5O9,https://materialsproject.org/materials/mp-753069,-24.596021902664237,-62.40385741585866,-13.98544476352446,-62.80226019706602
-7.659856476428572,-107.23799067,6.031918984673898,-3.5622225492857145,0.0,2.6914,63,14,263.80436197602376,958.2710800000001,mp-752726,BaLa2O4,https://materialsproject.org/materials/mp-752726,-7.597263433780317,-62.5194700312586,-11.875774958851618,-65.52069700380572
-6.83002552,-218.56081664,7.009701963213785,-2.2786326600390634,5.525e-05,1.2506000000000004,62,32,638.0275448445453,2693.332000000001,mp-1200853,Er2HfS5,https://materialsproject.org/materials/mp-1200853,13.985611008445929,-5.844120056917705,-0.320709945499032,-12.688720858005311
-7.294576045499999,-437.67456273,3.2842450365570963,-3.104410632833333,0.0,4.7198,14,60,711.1296819945456,1406.485528,mp-1020647,Sr2LiBeB3O8,https://materialsproject.org/materials/mp-1020647,-18.947844146411732,-29.351189521709024,-8.707473572469286,-16.836195503381973
-6.348632017999999,-253.94528072,6.652219146913781,-2.4387561824375,1.25e-07,1.9344,122,40,850.8222688489308,3408.4451200000003,mp-32787,Ho2S3,https://materialsproject.org/materials/mp-32787,15.786399949746516,-4.257901186853879,9.35379283051431,-9.710230431450716
-3.2069314233333333,-9.62079427,3.2264832852765117,-1.1204380464798849,0.0,0.4581,166,3,96.20780211659994,186.935,mp-753746,Rb2O,https://materialsproject.org/materials/mp-753746,-7.912579219641677,-11.976419259737055,-23.578821674530445,-18.040127554131892
-3.9469552316666663,-23.68173139,6.193487006558391,0.19907764166666672,1.7199999999999998e-05,0.0,141,6,148.77088286281352,554.8864,mp-1217320,TeAs2,https://materialsproject.org/materials/mp-1217320,21.401695473555893,7.7472615373094325,38.442630487814924,-23.41534257881237
-4.653806126428571,-65.15328577,3.7422914747704943,-1.206749086607143,2.0000008,0.0,166,14,310.83894696814315,700.5255,mp-1247489,Mg2VIn3S8,https://materialsproject.org/materials/mp-1247489,1.891798696508364,25.98265265413564,-22.66807222825229,-79.76767792857163
-7.7340675494444415,-278.42643178,5.6247871079977605,-2.896218996111111,0.0,3.2961,2,36,537.7790581178248,1821.633,mp-557784,LaNbTeO6,https://materialsproject.org/materials/mp-557784,-47.85874234389594,-52.789412872273886,-24.045894103762283,-59.028395359910355
-8.203903975,-328.156159,6.089591372921512,-3.754582278250001,0.0,3.6593,206,40,719.4810411803293,2638.508,mp-16705,Pr2O3,https://materialsproject.org/materials/mp-16705,-9.41651732398552,-61.7318628920355,-15.712945363416887,-66.87066310286997
-9.0569244071875,-289.82158103,5.654207897602543,-2.3023704397265634,13.99996715,0.9655000000000004,62,32,664.9535921390575,2264.196,mp-1200036,Gd2ZrS5,https://materialsproject.org/materials/mp-1200036,13.800690648948866,-6.186444210472626,-0.4664795503778977,-12.486490041530809
-6.053255615714287,-169.49115724,5.664093182008685,-2.5191664237500007,3.875e-06,1.7422999999999995,62,28,707.6587560335515,2413.82168,mp-1193579,Ba(TmS2)2,https://materialsproject.org/materials/mp-1193579,7.308879734661566,-4.048257641088445,-7.40303750595022,-12.89423189539897
-4.318862600357143,-120.92815281,4.503689131556935,-0.2005345546921181,0.0,0.8435999999999999,62,28,778.9329909405333,2112.6104,mp-1192510,Rb(GeAs)3,https://materialsproject.org/materials/mp-1192510,13.520183266354765,22.88863371822189,-8.96857608868774,-72.04412631785644
-7.41322591673913,-341.00839217,5.224218673933128,-2.7042995178260867,0.0010554,3.418,15,46,685.1645276031586,2155.5948,mp-1214393,BaSm2(MoO4)4,https://materialsproject.org/materials/mp-1214393,-52.17444843840931,-52.49809806758443,-24.946933204483646,-59.443926796645115
-4.544284364285714,-63.6199811,4.405753094838774,-0.5232824620535713,0.9601390999999999,0.0,12,14,527.268405895789,1398.9520000000002,mp-1080285,Ce(SbSe2)2,https://materialsproject.org/materials/mp-1080285,-5.2056854326983135,6.5716558282047,-36.72789392272988,-29.65928820743525
-4.905387439166667,-58.86464927,4.201333534401849,-1.2899168982968756,0.0,1.3302,12,12,295.7062632203818,748.1670771199998,mp-7219,Na2ZrSe3,https://materialsproject.org/materials/mp-7219,22.058845565506346,4.808265962115599,12.65065038972657,-7.670485658322795
-5.809544027142858,-81.33361638,3.5503559387512835,-1.8907553082142856,4.0000008000000005,0.0,166,14,363.31030900701586,776.784455,mp-1247054,La3Mg2MnS8,https://materialsproject.org/materials/mp-1247054,14.060848974874284,7.499336340921867,-25.830980678932608,-76.67468059912315
-3.672968005,-36.72968005,3.1281089336161543,-1.7479655053689656,0.0,3.2201,225,10,389.8594429483082,734.413812,mp-1114409,KRb2ScBr6,https://materialsproject.org/materials/mp-1114409,2.5163298267672043,6.552084759639849,-34.292373183008785,-69.57323348087444
-7.621815624878049,-624.98888124,3.3523716549216416,-3.0388393502743907,0.0,4.684900000000002,14,82,854.0328907801056,1724.1604000000002,mp-1020725,Sr4Li2B12O23,https://materialsproject.org/materials/mp-1020725,-18.9352429986212,-29.383071599386373,-8.73128277248543,-16.86311836860718
-3.424575494,-68.49150988,5.589970239986744,-0.1970259550000001,2.45e-06,0.9847999999999996,167,20,795.2392970297733,2677.06082,mp-1188875,Te6IrI3,https://materialsproject.org/materials/mp-1188875,14.08772375032524,0.7607485159901358,-10.594422378359734,-6.157386078426906
-3.8037712122222223,-68.46788182,4.103509838572802,-0.7274422576631944,0.0,0.8472,15,18,574.9587769353825,1420.8331999999998,mp-8966,K2Sn2Se5,https://materialsproject.org/materials/mp-8966,-3.0642978148396414,2.1369316472065263,-4.792145996213545,-21.39890105830648
-7.560916718333334,-725.84800496,6.512828228580647,-2.470747517239584,1.3333608166666666,0.7117999999999993,186,96,1256.8186436532833,4929.3896399999985,mp-560684,LaMo2O5,https://materialsproject.org/materials/mp-560684,12.423524720670063,-17.185239080253567,2.364725080404858,-24.89544365059966
-3.100787558,-186.04725348,5.223576586634223,-0.2579757714942526,0.0,0.4848000000000003,57,60,2447.282232443602,7698.4436152,mp-505464,Cs2Te13,https://materialsproject.org/materials/mp-505464,18.63576765542452,-8.899532803817971,-18.12843777679116,-12.222611089252505
-6.9324211078571425,-97.05389551,3.3591022932560337,-1.7725192506547631,2.95806935,0.0,141,14,309.35790051901273,625.7997,mvc-16741,Y(TiS2)2,https://materialsproject.org/materials/mvc-16741,3.756367363557268,28.189687795631933,-19.225405055862225,-77.03695187397177
-9.64946505714286,-67.5462554,5.785093409356923,-1.9116777915728584,11.999979199999999,0.0,164,7,107.91202533798528,375.9509,mp-22234,Eu2C(NO)2,https://materialsproject.org/materials/mp-22234,-9.926193226191339,-58.985664040072066,6.748253123139619,-56.721032838982104
-7.94481247631579,-150.95143705,6.346777192629329,-3.0412636442105274,4.9356292,0.2431000000000001,12,19,287.4507982983075,1098.67105,mp-558974,Pr5(RuO6)2,https://materialsproject.org/materials/mp-558974,-11.683727881026176,-61.245367824036514,-19.12402338030952,-53.17619974234051
-7.83177658,-31.32710632,4.467851123107226,-2.1017220120312503,7.000000200000001,0.3031000000000001,123,4,84.8586767340996,228.321,mp-1222337,LiGdS2,https://materialsproject.org/materials/mp-1222337,14.053127927627685,9.007027429913617,-31.29974184502993,-73.24567958405274
-3.172424002,-15.86212001,3.3226837269308085,-1.0483990285999998,0.0,1.2509,8,5,175.64023293567737,351.4503,mp-998412,KGeBr3,https://materialsproject.org/materials/mp-998412,1.9387742609014291,13.077351611305575,-29.55063369517653,-74.05227689844617
-5.08014870090909,-55.88163571,2.6150314455119603,-1.2630619184208465,2.0,0.4304000000000001,1,11,285.67170069061217,449.8783,mp-674325,Rb4CO6,https://materialsproject.org/materials/mp-674325,-32.342815862966816,-9.516037745825177,-24.263080513378302,-3.625771120657088
-4.045829101875,-64.73326563,4.495855150667518,-0.6046931853017243,4.99948565,0.3886000000000001,70,16,701.6586674246283,1899.7178976,mp-22235,Cs2MnSnTe4,https://materialsproject.org/materials/mp-22235,2.501564203652642,-3.0369544207564765,-18.16225692319377,-13.564569606366684
-4.4694049335,-89.38809867,4.6112997010517365,-0.5541379402514884,0.0,1.7593,163,20,583.9666911619453,1621.669448,mp-13384,ErAg(PSe3)2,https://materialsproject.org/materials/mp-13384,17.69586667170311,2.009231631020245,-0.5812489044346529,-16.22153586799734
-3.50861805625,-28.06894445,4.269130678976372,-0.6657843148749998,1e-07,1.2847,140,8,237.40143309180922,610.34261576,mp-10163,NaAlTe2,https://materialsproject.org/materials/mp-10163,-7.9346542466779075,-11.789305935415248,-27.03958615339119,-34.15225532540813
-5.857676632857142,-1312.11956576,3.752368313235235,-4.066975602992857,0.0,7.1404000000000005,88,224,2968.0521815991838,6706.993747199999,mp-1200608,SrAlF5,https://materialsproject.org/materials/mp-1200608,-14.885182655491533,-25.682146348627786,-15.331809458659857,-16.925007805129837
-3.74057446,-71.07091474,4.504565203404963,-0.6105535693421063,0.0,1.5575,2,19,592.4360989942942,1607.10888,mp-560411,CdSb6(S2I)4,https://materialsproject.org/materials/mp-560411,-5.248577757796694,-6.62460701406082,-23.525306633320564,-29.560250685061693
-5.852672511428572,-81.93741516,4.280882710951134,-1.9685972423214293,3.0,1.0880999999999998,166,14,327.62743292757176,844.6261,mp-1247249,Dy3Mg2CrS8,https://materialsproject.org/materials/mp-1247249,12.580319770109098,8.160426476851864,-23.635787861474103,-78.95044662999466
-2.6199750522222223,-94.31910188,4.151101808141887,-1.3827601065134099,4.429999999999999e-05,2.4712,62,36,1598.21679590479,3995.3054228,mp-1202741,Cs3HgBr5,https://materialsproject.org/materials/mp-1202741,-6.953869254352088,-7.8777598594987275,-31.908515632353886,-33.68763704192664
-3.93172901,-47.18074812,1.7485756171272735,-1.5049410646875,0.0,3.8991,62,12,174.53471619655232,183.788,mp-1125,Li2S,https://materialsproject.org/materials/mp-1125,-3.0967440541949043,10.980015760389945,-14.189020647130883,-68.02684053847399
-6.6217462755,-264.86985102,5.909024273884912,-2.4427482689375006,0.9470648125,0.0,11,40,907.2817565966251,3228.56,mp-1202288,CeErS3,https://materialsproject.org/materials/mp-1202288,12.378539292983234,-6.422842128269159,-3.0018719542993084,-12.989864112364216
-5.459679853571429,-76.43551795,5.701775464914457,-2.0562304051785723,0.0,1.2348,227,14,344.0060611835804,1181.21,mp-8269,Lu2CdS4,https://materialsproject.org/materials/mp-8269,10.559964906687721,12.307573407880671,-20.92416098116999,-75.38788181238245
-4.230887193333333,-25.38532316,4.254429551496964,-0.4816247916666659,0.0,0.0,186,6,144.69352078847768,370.716,mp-13286,CaGe2,https://materialsproject.org/materials/mp-13286,33.2112081611432,-3.72520278223122,15.79992397220641,14.928342240114427
-5.869546814285713,-82.1736554,3.5436002461110503,-1.916654195357144,2.9999976000000004,0.9823999999999996,166,14,362.62433949112005,773.84251,mp-1246738,La3Mg2CrS8,https://materialsproject.org/materials/mp-1246738,14.048561550745445,7.485438959501918,-25.794190649916814,-76.72204797255405
-5.5857961382142856,-156.40229187,3.884312557569488,-1.5147817231249998,0.00013945,2.1805000000000003,2,28,885.7035149794908,2071.8268,mp-1232194,Y2MgSe4,https://materialsproject.org/materials/mp-1232194,19.24360485107797,13.816340834314868,-11.82781716448957,-12.30874092313926
-6.778442786785715,-189.79639803,2.8196764743443214,-2.841658991180408,0.0,5.4322,1,28,320.5026728473972,544.229208,mp-24390,CaPHO4,https://materialsproject.org/materials/mp-24390,-53.571865646447115,18.750916427266105,-28.859302787297917,-45.73002859898426
-2.947199257619048,-61.89118441,4.444497940895719,-0.5244877720587029,0.0,0.5646,164,21,858.5020415074124,2297.8144228,mp-1226383,Cs12Sn2As6O,https://materialsproject.org/materials/mp-1226383,-5.09998201228351,-24.69200890388576,-28.741747977726803,-65.50134166797093
-6.5653391725,-315.13628028,3.75921302126346,-2.684769003218749,5.7999999999999995e-06,5.6898,14,48,674.2201574486752,1526.3339999999998,mp-1211618,KSm(SO4)2,https://materialsproject.org/materials/mp-1211618,-34.27933183125651,-25.372178273639847,-31.100073635721806,-32.96047469030665
-3.9276692815,-78.55338563,4.060601397108117,-0.3221542582361877,1.0,0.1994,1,20,548.3879833481377,1341.0012999999994,mp-1189635,Zn3Sn3Se9NO4,https://materialsproject.org/materials/mp-1189635,-4.253028125942838,1.46352742671048,-38.3718697812605,-35.12225438242974
-3.579296593035714,-200.44060921,4.274550098945548,-1.0509381920982142,3.3962614,0.0,227,56,2415.624977353916,6218.288000000001,mp-559274,Ba21Ge2O5,https://materialsproject.org/materials/mp-559274,-5.797440543102553,-25.300889925859533,-27.702355313797263,-56.21129475392046
-4.925821766,-49.25821766,6.433660591123853,0.30825356,0.2136931,0.0,227,10,328.25441905871435,1271.8023899999996,mp-1210260,Nd4Co,https://materialsproject.org/materials/mp-1210260,-10.03725957144591,-62.30027506704768,-7.939657350976829,-66.48919752737328
-5.618426494285713,-39.32898546,7.388376176605789,-0.02899419142857137,3.3963528,0.0,10,7,151.5009873097136,674.0861,mp-1237584,Cr(FeTe2)2,https://materialsproject.org/materials/mp-1237584,25.994763891123032,22.614692757027672,25.23427560596221,-43.92048359390446
-4.191661063571429,-117.36650978,3.450880275934395,-0.9307633656666994,2.999999025,0.3163,54,28,884.5370340129509,1838.2171875999998,mp-1213628,CsMnBr3O2,https://materialsproject.org/materials/mp-1213628,-5.717350422811028,-5.799050909720499,-28.226962503022808,-46.08871204501679
-5.3054059925,-21.22162397,4.757577403717707,-2.1745481608674577,0.0,2.3503000000000003,166,4,109.77986864274143,314.52812,mp-9366,RbHoS2,https://materialsproject.org/materials/mp-9366,5.253970361701816,-4.111852268249964,-3.2695989704246213,-5.10686580165905
-4.615767771071427,-129.24149759,4.066920417937293,-1.7791693135406403,0.0,3.1610000000000005,198,28,696.0135939987551,1704.6464,mp-768232,Rb3SbO3,https://materialsproject.org/materials/mp-768232,-4.558908436315933,-29.342382136398786,-27.74753255373111,-59.03015817856753
-4.597327375,-45.97327375,4.981197833806816,-0.5712760804374994,1.05e-06,1.0678,12,10,336.4518647043928,1009.2706400000001,mp-1205627,Nb(SeI)2,https://materialsproject.org/materials/mp-1205627,0.7312362726138085,1.7572976118238182,0.5460910721101231,-20.116320987316293
-8.243866750075757,-1088.19041101,4.9710507728773985,-3.67216459246212,0.0,4.3649,14,132,1787.7027986474775,5351.73288,mp-555800,La2Si2O7,https://materialsproject.org/materials/mp-555800,-20.45095230059041,-35.64206377592684,-17.20756287401104,-32.059736405358784
-6.3280168770000005,-63.28016877,5.888985019290818,-2.458094447437501,0.0,2.5376,167,10,244.78895849958084,868.12684,mp-14787,Tm2S3,https://materialsproject.org/materials/mp-14787,10.804429028381849,11.621338800215833,-8.396419536179137,-7.562293688378782
-3.4166562380000003,-34.16656238,5.226649482279611,-0.3189397000000003,1.4e-06,0.6164000000000005,9,10,331.84160308588554,1044.492,mp-38970,Ga2Te3,https://materialsproject.org/materials/mp-38970,17.402822957380312,14.020671831677914,5.5773754137725575,-15.073708168527752
-6.3841765501851855,-344.74553371,6.424824090410228,-2.4459243959259265,0.00103165,0.0,18,54,1168.8544699654665,4522.4377,mp-530036,Tb11S16,https://materialsproject.org/materials/mp-530036,16.16440320356001,-4.3460834698300825,9.349788110184779,-9.52112035746003
-5.896866344107143,-330.22451527,3.828474235907421,-3.5525080742428563,2.9999999875,2.7947,79,56,814.0599345086342,1876.8649280000002,mp-1209037,SrCrF5,https://materialsproject.org/materials/mp-1209037,-14.901646600771704,-24.492463056661283,-15.248999468767787,-17.94263220500144
-6.01682794642857,-84.23559125,5.680177062713442,-2.4431004451785716,2e-07,2.1913,122,14,291.2860927612392,996.39728,mp-34011,Ca(HoS2)2,https://materialsproject.org/materials/mp-34011,18.958743222309057,-3.7681154791776263,8.382792734540883,-9.132410461368648
-4.896908331111111,-88.14434996,3.709246521563067,-1.3428582226229255,0.0,1.6800999999999997,132,18,424.53485888222684,948.3092,mp-7129,Rb2Ti(CuS2)2,https://materialsproject.org/materials/mp-7129,-8.139655507185852,8.723499126797153,16.826377393411164,-42.76174925947636
-5.505671101428571,-77.07939542,5.552937270975829,-0.4909411971726193,11.0000302,0.0,216,14,316.96337309584646,1059.9436,mp-1226280,Cr4CdAgSe8,https://materialsproject.org/materials/mp-1226280,5.573050532790401,26.236306722882013,-19.27741974431035,-76.13404738813577
-5.312671900000001,-26.563359499999997,6.4045703013322735,-2.1317351485,0.0,1.6797000000000002,107,5,118.80202571403288,458.2102,mp-1227937,BaBiBrO2,https://materialsproject.org/materials/mp-1227937,-21.23172341679671,-55.67858802269242,-11.328261108697104,-60.30593785405694