energy_per_atom,energy,density,formation_energy_per_atom,total_magnetization,band_gap,sgr,num_sites,cell_volume,weight,mp_id,formula,URL,tsne_cry_0,tsne_cry_1,tsne_xrd_0,tsne_xrd_1
-9.012873243333333,-108.15447892,8.816580557603567,-0.24815074500000145,12.361423,0.0,160,12,169.76836663956638,901.3798800000001,mp-1215420,Zr3TaFe8,https://materialsproject.org/materials/mp-1215420,70.37167937073883,47.911915907830256,73.77729011277351,23.40694242561119
-5.7997475459375,-185.59192147,4.208154197135421,-1.864398582559999,22.000001100000002,0.4403999999999999,2,32,285.2966175590591,723.001465,mp-1175489,Li9Mn2Co5O16,https://materialsproject.org/materials/mp-1175489,14.096299508591187,89.27549410489037,6.50395631794919,92.26974262797545
-7.441660053333332,-22.32498016,6.905202200401447,-0.4508611677777784,4e-07,0.0,139,3,48.613291740051324,202.15400000000002,mp-13164,Ti2Pd,https://materialsproject.org/materials/mp-13164,66.89071611982769,28.268904653892783,62.57764514276214,61.20707507591829
-7.0913067774285725,-496.39147442,3.469281916986417,-3.3761350510000003,1e-07,4.183400000000002,160,70,680.9412342247617,1422.6567719999996,mp-531530,MgAl2O4,https://materialsproject.org/materials/mp-531530,1.7964138101197202,62.652891477925756,9.684428169120432,53.81303524410128
-2.7171847584375,-173.89982454,14.560069599968571,-0.1938611803124997,4.05e-06,0.0,72,64,1077.5750584066338,9448.47876,mp-1207512,Zn3Au5,https://materialsproject.org/materials/mp-1207512,63.11459829625811,21.991550835444045,71.84457042004131,13.626939641392966
-7.3172386071428575,-102.44134050000001,8.975637029995053,-0.6950766528571434,0.0,0.0,148,14,258.76743785899725,1398.7040000000004,mp-12712,Zr3Pd4,https://materialsproject.org/materials/mp-12712,63.76736844611278,32.72160485786537,70.99920175020658,7.072062817527933
-7.615959261666667,-91.39151114,2.858255619444624,-2.9899100791666675,0.0,4.1198,6,12,139.62687614407048,240.3372,mp-557653,SiO2,https://materialsproject.org/materials/mp-557653,-80.17280089838786,30.320141665032157,-77.35530568728393,41.894104277641524
-6.800637736730769,-353.63316231,2.38984004650686,-2.562013098365385,0.0,3.0432,110,52,662.0916384411363,952.8792,mp-985637,Li2Si4O7,https://materialsproject.org/materials/mp-985637,-81.04173073393237,30.99476451567832,-69.43728272960378,38.4115690069618
-4.34909719,-17.39638876,6.0269090570020625,-0.4929614387500001,8e-07,0.0,221,4,70.01670896664736,254.12491200000002,mp-932,ScGa3,https://materialsproject.org/materials/mp-932,51.90803081550429,30.94407197603654,55.452343011958526,38.16962122733202
-2.7431220475,-10.97248819,14.128385340921906,0.6898890712500001,0.0027905,0.0,216,4,70.3254597852161,598.351,mp-631309,LiHg2Os,https://materialsproject.org/materials/mp-631309,88.63925491466931,3.216182388153078,57.24170515644171,67.92080609320263
-5.7794335525,-184.94187368,4.237524700040859,-1.8440845891224988,15.9999926,0.17070000000000007,1,32,283.31921194420823,723.001465,mp-1176026,Li9Mn2Co5O16,https://materialsproject.org/materials/mp-1176026,19.29209278252868,90.96475097641417,10.09403471391536,89.00448193381462
-6.336295596666666,-38.01777358,7.720636559083965,-0.5400039824999988,1.23e-05,0.0,38,6,110.55136155354441,514.0059120000002,mp-1224337,HfScGe4,https://materialsproject.org/materials/mp-1224337,59.007566515485856,21.009367557816073,51.921779443608635,12.559232488431896
-7.324287068333334,-43.94572241,10.434602635743929,-0.1757768816666676,3.041154,0.0,227,6,91.23589200392077,573.3140000000002,mp-2463,LuFe2,https://materialsproject.org/materials/mp-2463,80.62302040220219,29.35958123753103,70.93008817432641,26.707703628766485
-7.425693353125,-475.2443746,3.9176342831728928,-3.458093973320313,0.00039789999999999997,4.4617,186,64,606.4517825244494,1430.7741264,mp-1218531,SrAl12O19,https://materialsproject.org/materials/mp-1218531,3.2667442356295777,60.616148050426226,7.115495840116585,52.02050305931033
-8.47254368,-16.94508736,6.781931986587795,0.4139540906249993,1.27e-05,0.0,221,2,25.276757415395053,103.2347,mp-1009878,ZrC,https://materialsproject.org/materials/mp-1009878,85.04591177676271,32.68606646457977,53.97750707631609,48.60643827346826
-6.754562758333333,-243.16425930000003,3.185791039374206,-3.311110472486667,0.9988876,0.0,62,36,381.4153339601313,731.7560887999999,mp-1214868,Al3(O2F)2,https://materialsproject.org/materials/mp-1214868,4.604278386273232,63.15169095208726,5.0598457514170585,51.959643526377924
-4.8031319529999985,-48.03131953,3.3700281979510334,-2.6876556723509997,2.0000063999999997,1.9211,139,10,87.92919814103621,178.45041279999995,mp-753143,Li4NiOF4,https://materialsproject.org/materials/mp-753143,27.638771588551997,66.76515060258623,-4.768100901621962,65.42776126884499
-5.485306115,-10.97061223,5.2225390142711685,-0.26939145249999985,3.2e-06,0.0,221,2,34.49886354095305,108.501912,mp-1169,ScCu,https://materialsproject.org/materials/mp-1169,99.27616974765644,5.897151797402552,66.12053034321346,62.28047620887468
-9.699690776666666,-58.19814466,7.385206442004668,-0.09000798666666654,3.25e-06,0.0,74,6,88.06973158916973,391.68796000000003,mp-1220374,NbVCr,https://materialsproject.org/materials/mp-1220374,69.35034744425865,45.6347983950345,77.089531311879,24.784622301193988
-7.093956339642856,-595.89233253,3.4683553187413216,-3.3787846132142856,2.25e-07,4.123399999999998,156,84,817.3477836003353,1707.1881264,mp-530146,MgAl2O4,https://materialsproject.org/materials/mp-530146,1.7874171312864606,62.655817478663884,9.68819881807327,53.81935740668414
-6.940643024615384,-90.22835932,13.306150202299705,-0.2801044283333323,1e-07,0.0,189,13,220.69645040662644,1768.4740000000004,mp-28998,Sn5(BIr3)2,https://materialsproject.org/materials/mp-28998,52.40062794402393,19.833226976340946,69.77372270532226,13.353536904349784
-5.790312443125,-185.28999818,4.228445264782011,-1.8549634797474992,21.999999600000002,0.6071999999999997,1,32,283.9275628347495,723.001465,mp-1176045,Li9Mn2Co5O16,https://materialsproject.org/materials/mp-1176045,11.452457957254012,88.8265316793168,6.897881310183668,94.16946796915695
-10.519339645,-42.07735858,17.464965550428033,-0.13253961291666805,1.17e-05,0.0,221,4,58.811341138895436,618.5569999999999,mp-980203,TiOs3,https://materialsproject.org/materials/mp-980203,56.46963535671632,59.03357508093065,83.92574902688459,10.230686129768527
-6.752682697272728,-74.27950967,6.901626603757143,-0.6205567369696958,0.0,0.0,69,11,153.48606629384017,637.9275,mp-8895,Ca2B4Rh5,https://materialsproject.org/materials/mp-8895,53.24602847854046,18.89307150060045,48.71392950003632,7.5478266501874955
-5.1124885425,-20.44995417,12.497628489420785,-0.3035140975000008,2.2e-06,0.0,221,4,69.9498615868134,526.46,mp-20849,Pd3Pb,https://materialsproject.org/materials/mp-20849,51.249970845622514,32.607175308868904,55.65312040663677,36.364548442934115
-8.8210489425,-70.56839154,9.186961635110713,-0.11516550250000003,1.325e-05,0.0,194,8,116.03452743887364,641.9630772,mp-1183188,AlTc3,https://materialsproject.org/materials/mp-1183188,56.02306172326114,56.77071818071593,81.64042070937145,9.443739249262563
-8.9022116675,-35.60884667,12.323302777100945,-0.14195701875000033,0.41553959999999995,0.0,225,4,67.87950666796428,503.75190999999995,mp-865421,UGaTc2,https://materialsproject.org/materials/mp-865421,94.20802028050885,8.602559243533488,58.59119190454929,66.91232172879157
-5.40303163125,-86.4485061,3.9990050107233515,-1.7118336437500004,10.0,0.0,10,16,140.97322847868432,339.49978500000003,mp-1174051,Li5Co3O8,https://materialsproject.org/materials/mp-1174051,1.5857069592023716,93.6378422764065,-4.280494789147313,83.89161970168533
-5.7809867309375,-184.99157539,4.2262511344135945,-1.8456377675599995,18.0,0.22529999999999986,2,32,284.07496867227144,723.001465,mp-1175720,Li9Mn2Co5O16,https://materialsproject.org/materials/mp-1175720,18.9497056163616,90.7797177692673,9.438725306211897,89.68596085806446
-2.913762834375,-46.62020535,15.759301710994684,-0.14033990562500032,3.5e-07,0.0,64,16,276.61789849612165,2625.234828,mp-1755,ZnAu3,https://materialsproject.org/materials/mp-1755,63.31550090288854,22.001824642612856,55.951105249450386,35.18561863462032
-2.6274268725,-31.52912247,4.6676841089401035,-0.0722027858333334,2.85e-06,0.0,63,12,233.0191349652271,655.004,mp-1094630,MgGa2,https://materialsproject.org/materials/mp-1094630,44.58533069310365,32.71498775842648,45.547247315384894,32.81077602891073
-5.518389046875,-88.29422475,4.150575560106799,-0.4656052978125,0.002747,0.0,47,16,275.9626915377788,689.7784246,mp-1215382,Zr4Al11Si,https://materialsproject.org/materials/mp-1215382,47.22385478157097,36.4115962223631,56.429664486735255,32.79542439669616
-6.507908755,-39.04745253,6.125037867772508,-0.08849621222222244,0.0003792,0.0,123,6,98.37980973009529,362.8822,mp-1217098,Ti4CuAg,https://materialsproject.org/materials/mp-1217098,47.54123327119019,32.71566887346968,80.61045714213891,19.895493321889145
-7.4578075675,-59.66246054,10.358271389643411,0.3474243250600004,9.000000000000001e-07,0.0,63,8,90.34756517888155,563.5788,mp-1245551,CuOsN2,https://materialsproject.org/materials/mp-1245551,50.75219786247246,18.787531590402672,12.916906268508813,43.84590062534548
-7.254060004999999,-174.09744012,4.267823915147979,-1.9073239867466656,9.00000015,0.6579000000000002,36,24,263.73743067143533,677.8430900000001,mp-760027,MnCr3O8,https://materialsproject.org/materials/mp-760027,-11.409982369191914,69.52174792763368,0.8457882721675328,59.47227701529781
-9.862864,-19.725728,9.95447355684874,-0.17328485500000035,2.8e-06,0.0,123,2,32.357848959904516,193.97638,mp-432,NbRu,https://materialsproject.org/materials/mp-432,65.04305311099725,37.96915193743804,78.6196982278988,22.042322484495134
-5.7831676015625,-185.06136325,4.2421837247227145,-1.8478186381849997,16.000888800000002,0.3096000000000001,2,32,283.0080535203995,723.001465,mp-1175668,Li9Mn2Co5O16,https://materialsproject.org/materials/mp-1175668,19.305098523423077,90.87028940658509,10.140217130654603,89.08726082054113
-6.7781847950000005,-40.66910877,4.342190472053551,-2.795634689003334,0.0,2.1293,129,6,107.35151081516425,280.7165,mp-614918,YClO,https://materialsproject.org/materials/mp-614918,21.944167349594803,8.580136594675865,58.283475398015604,32.23429595697622
-7.0224184985,-140.44836997,6.44960829478125,-0.036376457451999036,0.0001818,0.0,59,20,208.25291612984887,808.8636899999998,mp-1245431,MnNi5N4,https://materialsproject.org/materials/mp-1245431,25.30967271796337,53.27394894534235,60.86776925869717,7.164518746519756
-8.920352181666667,-53.52211309,4.177526647092962,-3.4703662697222213,0.0,1.7809999999999997,136,6,63.49224795639265,159.7316,mp-2657,TiO2,https://materialsproject.org/materials/mp-2657,-13.458582274711356,88.1346235324527,-15.430811128963649,87.577052724278
-5.6672983625,-22.66919345,8.053336591696299,0.4082021612499993,9.97e-05,0.0,225,4,66.55173852914797,322.7648,mp-1187399,TcAs3,https://materialsproject.org/materials/mp-1187399,100.66073941493036,7.947349849991075,65.02488592455781,60.952665246774934
-6.1229419275,-73.47530313,3.6989405401244224,-2.1273435970349994,3.0000002,0.8653,12,12,104.88476594990615,233.63648999999998,mp-1173926,Li2MnO3,https://materialsproject.org/materials/mp-1173926,1.8550123033845047,91.80768280988451,-5.376836414535143,93.89821934888431
-5.2928865200000015,-37.05020564,8.97091891413934,-0.592195226020408,7e-07,0.0,123,7,108.72524597570104,587.378762,mp-1025261,MgPPd5,https://materialsproject.org/materials/mp-1025261,55.90142097137265,42.29242291673739,77.42458809081475,11.708073571772607
-6.390613639354839,-198.10902282,2.628167533402877,-0.06483022215053783,1e-07,0.3545999999999996,8,31,240.70978788690383,380.9760772,mp-1222257,Mg(AlB14)2,https://materialsproject.org/materials/mp-1222257,5.3438881717495175,59.92564947178282,5.7454316222808774,50.21016188690983
-9.566611105,-19.13322221,9.029378790272641,-0.6598405649999997,0.0,0.0,221,2,35.3636392463405,192.294,mp-214,ZrRu,https://materialsproject.org/materials/mp-214,100.83156821041918,5.295924731434626,68.3600828335341,60.61867410279826
-5.777554920625,-184.88175746,4.213707046353671,-1.842205957247499,20.0,0.0,2,32,284.92065191114983,723.001465,mp-1175563,Li9Mn2Co5O16,https://materialsproject.org/materials/mp-1175563,15.516501697555235,89.86073707881556,6.916947515111383,91.7922504467168
-7.202730624,-72.02730624,4.016267809479868,-3.1676402372500005,0.0,4.271699999999999,63,10,84.31244597744525,203.9225544,mp-642363,Al2O3,https://materialsproject.org/materials/mp-642363,7.390308810641612,61.26592950067163,8.156412454095907,49.112517414004934
-5.7862651996875,-185.16048639,4.23806889483378,-1.850916236309999,16.0000003,0.3475999999999999,1,32,283.28283196934217,723.001465,mp-1175933,Li9Mn2Co5O16,https://materialsproject.org/materials/mp-1175933,19.0286146470728,90.2858615803323,10.135994228150224,89.53455288300465
-11.2139218175,-44.85568727,20.517734820580962,-0.3021953124999985,0.0,0.0,51,4,60.8700068721912,752.1139999999999,mp-30744,IrW,https://materialsproject.org/materials/mp-30744,67.60204933323648,63.55473600815996,89.66957993642977,16.629611176212247
-5.98535545375,-95.76568726,3.9000306526614397,-2.0138568701200006,9.682344500000001,0.0,12,16,141.1487475353906,331.5094850000001,mp-1174091,Li5Mn2CoO8,https://materialsproject.org/materials/mp-1174091,2.340238382700352,92.35255846134756,-4.364972085111024,93.94478824127205
-5.7883737290625,-185.22795933,4.212859665939791,-1.8530247656849996,20.000000399999998,0.4699,2,32,284.9779612447342,723.001465,mp-1175387,Li9Mn2Co5O16,https://materialsproject.org/materials/mp-1175387,15.699744334028141,90.00032789040273,7.652707155313393,91.2204167213037
-7.447961041875,-595.83688335,3.574527960263921,-3.4128706551250003,1.1175e-05,4.0646,13,80,757.8541647613174,1631.3804352,mp-759943,Al2O3,https://materialsproject.org/materials/mp-759943,3.6502553764296914,62.09991952707896,8.074175202145113,52.413919424098864
-5.77769964,-184.88638848,4.213258527551112,-1.8423506766224989,15.9999992,0.15380000000000038,2,32,284.9509828934012,723.001465,mp-1175629,Li9Mn2Co5O16,https://materialsproject.org/materials/mp-1175629,19.186320469533104,90.89746648718551,9.960835845159508,89.4148701925115
-9.35049154,-37.40196616,14.903640926359975,-0.7128567925000002,8.900000000000001e-06,0.0,225,4,67.73014367622416,607.8904,mp-1184611,Hf2NiIr,https://materialsproject.org/materials/mp-1184611,95.08205988545441,8.796407412599345,62.156598542500525,65.084462168056
-7.2091562133333325,-43.25493728,4.79910462396093,-0.32570161499999983,4.4e-05,0.0,164,6,100.50573428614958,290.47045719999994,mp-1208228,Ti3NbAl2,https://materialsproject.org/materials/mp-1208228,46.982655156758874,34.71541081350699,50.735451546999904,32.36302107885923
-6.6694116525,-26.67764661,10.651289968289507,-0.2160947462499996,2.2244534,0.0,139,4,59.78061462460843,383.454195,mp-1018085,CoSnRh2,https://materialsproject.org/materials/mp-1018085,58.982241139816935,57.97195889424958,83.09603212279302,12.685320298763358
-4.877758578461538,-253.64344608,10.057859788055923,-0.3259941115384618,0.0,0.004400000000000404,14,52,969.5781246194656,5872.719999999998,mp-29907,Te4Pd9,https://materialsproject.org/materials/mp-29907,59.160613926001474,42.41897336828904,66.4235005058716,-2.509068107348684
-4.595845774210527,-87.32106971,4.543253665707495,-1.1385278576578957,4.0000001,0.5005000000000002,2,19,199.3486161896999,545.42007712,mp-753301,Na4(NiO2)5,https://materialsproject.org/materials/mp-753301,14.890867653120136,65.28863661924173,12.8533808352732,67.47190468083977
-6.67958158625,-53.43665269,5.20151136639789,-0.32607383797571465,1.5e-07,1.8367000000000004,122,8,78.23537616781203,245.066324,mp-1078469,CuPN2,https://materialsproject.org/materials/mp-1078469,21.413572359871413,51.97036986142921,43.79802429882664,36.25661864471501
-7.10026884125,-397.61505511,3.466573109884455,-3.3850971148214284,3.75e-08,4.5557,160,56,545.1786615872339,1138.1254176,mp-530164,MgAl2O4,https://materialsproject.org/materials/mp-530164,1.7815137930620208,62.666725775334605,9.705683165252502,53.83580010036511
-7.4487102775,-297.9484111,3.5755392339736805,-3.4136198907499997,2.5e-08,4.5982,15,40,378.81991001552666,815.6902176,mp-32570,Al2O3,https://materialsproject.org/materials/mp-32570,3.673539308278136,62.10667294333347,8.041593156582888,52.36745940266473
-8.4296097475,-33.71843899,8.366575712464943,0.18006769750000018,1.65e-05,0.0,225,4,67.93037516583006,342.26514,mp-1186214,Nb3Cu,https://materialsproject.org/materials/mp-1186214,99.56579455608654,7.23613143772766,65.43980164980486,61.67296332896903
-5.05381503,-45.48433527,3.2514111782278783,-2.8518544509,2.9999997000000005,2.4687,162,9,93.36374149087914,182.8104642,mp-752557,Li2MnF6,https://materialsproject.org/materials/mp-752557,-39.42672535004185,65.4805344772485,-27.225374767338977,72.65532894532342
-7.4515595467499995,-298.06238187,3.745220817455513,-3.416469160000001,4.625e-07,5.2158000000000015,206,40,361.6570335607411,815.6902176,mp-776475,Al2O3,https://materialsproject.org/materials/mp-776475,6.7285494421994345,61.58795214616322,9.065422151764952,48.29708133654256
-5.923171586666666,-71.07805904,4.345827602967492,-2.072500802430556,2.9999999,0.0,12,12,107.78006021635359,282.0732,mp-774353,Li3Ti(NiO3)2,https://materialsproject.org/materials/mp-774353,14.753446032503884,79.85642292444399,22.85677050745202,80.4807586494705
-6.739317032857144,-188.70087692,4.064397649258646,-2.0440046935714298,9.000009599999998,0.5187999999999999,1,28,291.5453720807175,713.59739,mp-756128,Li2Cr3CoO8,https://materialsproject.org/materials/mp-756128,12.083693073582367,75.05831379978653,20.771383715014395,82.30127880105398
-7.097802036190478,-298.10768552,3.467073800926064,-3.3826303097619053,1.6666666666666665e-07,4.5901,156,42,408.8249479654079,853.5940631999998,mp-34144,MgAl2O4,https://materialsproject.org/materials/mp-34144,1.789045283172909,62.66321280467473,9.70128792902158,53.82910611340024
-5.234587913030302,-345.48280226,10.24187366653442,-0.5168604650000008,0.028638599999999997,0.0,5,66,1190.5799961889638,7343.26,mp-1219223,Sn13Pd20,https://materialsproject.org/materials/mp-1219223,61.02683612423376,34.411157506066644,72.16326890679582,7.07610683143584
-4.8709012484375,-155.86883995,5.465766728920898,-0.6020319465624997,0.000154825,0.0,62,32,587.5420581313522,1933.9309440000002,mp-1200767,Sc3Ga5,https://materialsproject.org/materials/mp-1200767,42.000721547900866,23.35031501896235,58.77370150595172,4.979525967158713
-7.658494580625,-367.60773987,0.937769625358716,-3.032445398125,0.0,5.3454,2,48,1702.2914480158304,961.3488,mp-555960,SiO2,https://materialsproject.org/materials/mp-555960,-81.56546634927795,31.68960956166335,-81.38651477241723,42.34081101167936
-6.462401803333334,-96.93602705,4.186137346559822,-2.0610279673333336,8.9999995,0.3607,166,15,144.19158403441793,363.4999,mp-756615,Li3Cr3NiO8,https://materialsproject.org/materials/mp-756615,17.20947370646562,81.18432839597737,23.88005971170468,79.69683162118719
-7.257222708333334,-43.54333625,7.303842642815704,-0.19598176388888908,2.417548,0.0,194,6,102.1103664133981,449.13009000000005,mp-1216728,TiMnSb,https://materialsproject.org/materials/mp-1216728,49.94575198257322,38.98793726559096,51.581422974058675,32.43722946105473
-7.396506725,-29.586026899999997,9.11674339029924,-0.3837744683333337,1.95e-06,0.0,194,4,41.425030772081854,227.433,mp-567164,BRh,https://materialsproject.org/materials/mp-567164,58.34403193714724,25.780986264945234,44.61752689420107,26.214044320261802
-4.7923220550000005,-28.75393233,6.788949902520075,-0.7653617808333338,5.5100000000000004e-05,0.0,166,6,115.462247964927,472.056,mp-1071127,Ca2GePd3,https://materialsproject.org/materials/mp-1071127,52.54814248857961,16.89366466326395,50.29073943092917,4.399882942650821
-2.9317717275,-93.81669528,1.7159904071962315,-0.22037237124999987,1.25e-08,0.0,225,32,513.0474998783158,530.18,mp-569174,Li2MgSi,https://materialsproject.org/materials/mp-569174,36.28367479827423,38.24179003453772,40.798752673031395,55.25342579678489