energy_per_atom,energy,density,formation_energy_per_atom,total_magnetization,band_gap,sgr,num_sites,cell_volume,weight,mp_id,formula,URL,tsne_cry_0,tsne_cry_1,tsne_xrd_0,tsne_xrd_1
-4.4604441575000005,-160.57598967,4.6771499308198035,-0.4380818700000009,5e-08,0.0,156,36,386.383864407164,1088.3064,mvc-10289,NiO2,https://materialsproject.org/materials/mvc-10289,-0.4274734462827733,70.96697701739258,3.765037877108293,57.845803632724994
-7.1822219325,-172.37332638,4.417277264996942,-2.0997716675800007,9.0000007,0.04669999999999997,8,24,257.9809238904311,686.267075,mp-757180,Ti3Mn2Co3O16,https://materialsproject.org/materials/mp-757180,0.2547196730814524,72.21955117518908,1.4871427355108482,59.0718783809964
-5.55619951,-33.33719706,3.5341260106010495,-0.42508827222222223,1e-07,0.0,65,6,95.69144853895928,203.6601544,mp-11809,TiAl2,https://materialsproject.org/materials/mp-11809,59.662862692622745,53.73424529389201,81.0331276176925,18.038469965078253
-7.093861933333333,-42.563171600000004,11.523429152502985,-0.3488525833333327,8.1457659,0.0,216,6,84.87414265815646,588.9901689999998,mp-1071438,GdNi4Au,https://materialsproject.org/materials/mp-1071438,70.94250915348779,48.76116205524136,72.19894223563024,22.788757141088205
-5.5112216714285704,-154.31420680000002,4.267117718932289,-1.730880245803572,9.0,0.7135999999999996,2,28,246.3767122892592,633.11877,mp-1174233,Li4Co3O7,https://materialsproject.org/materials/mp-1174233,9.554091335003422,86.73379526519774,9.428370592775405,96.23713092192092
-8.170075970000001,-147.06136746,8.22670337464416,-0.4770212718518521,7.551383900000001,0.0,137,18,176.1025201701339,872.4535599999998,mp-1181496,Gd(CoB)4,https://materialsproject.org/materials/mp-1181496,55.37245896676094,26.12537422624526,73.80158929058452,15.00561770298194
-7.439485041428571,-208.30558116,3.2116736186571675,-0.5700792920742858,0.9999998999999999,0.0,159,28,290.12399635729975,561.1332,mp-603694,Si3N4,https://materialsproject.org/materials/mp-603694,5.107740982040674,56.953485198833654,1.9255266282433583,53.376653920499756
-9.2049039375,-73.6392315,18.415431116699747,0.34946705499999986,5.22e-05,0.0,194,8,133.08329479375928,1475.898,mp-1184334,ErOs3,https://materialsproject.org/materials/mp-1184334,69.03903681290203,56.924538287849636,57.573225052545205,40.513583439866146
-5.4770686528571435,-153.35792228,4.611804807015701,-1.4321062292857152,14.999994000000001,0.0,8,28,269.44365075433075,748.3241849999998,mp-774891,Li4Fe2Co3Ni3O16,https://materialsproject.org/materials/mp-774891,-2.443382321434988,72.19933795855971,2.7597443705846576,60.55255287193394
-7.3920610132142865,-206.97770837,3.5996821464887367,-3.3732942082142854,8.5e-07,6.118099999999999,62,28,234.29111920638616,507.89143679999995,mp-3081,BeAl2O4,https://materialsproject.org/materials/mp-3081,5.711294179581473,61.92884849791042,7.66316100724514,50.6165650343639
-5.561150925,-66.7338111,3.536389730347937,-0.4300396872222218,2.025e-06,0.0,141,12,191.26038873569198,407.3203088,mp-567705,TiAl2,https://materialsproject.org/materials/mp-567705,59.63970369479164,53.75313307548088,81.03162258693945,17.943887732986855
-4.33824174625,-34.70593397,12.472207331651942,0.8942277343750007,0.403619,0.0,194,8,135.75176267258811,1019.6232,mp-974525,ReAg3,https://materialsproject.org/materials/mp-974525,63.44259891039289,54.06608862760107,56.75747745355471,37.885100433137204
-6.540974756875,-104.65559611,3.292169390658201,-2.680807200905,2.2e-06,5.495400000000001,62,16,121.03007681239755,239.95311439999998,mp-625404,AlHO2,https://materialsproject.org/materials/mp-625404,7.072193121707637,61.442093942453155,7.654355440316807,50.77113416369453
-4.37958104,-8.75916208,6.1519611549176565,0.24316516500000065,2.395e-05,0.0,65,2,39.214017393194844,145.28,mp-1224349,Ge,https://materialsproject.org/materials/mp-1224349,34.62863954352025,27.04153347896256,68.59290135282299,9.622274716235047
-6.31713319875,-101.07413118,3.850545183280037,-2.19640277012,9.000001,0.6086,12,16,139.9711207756807,324.5723900000001,mp-1222520,Li5Mn2CrO8,https://materialsproject.org/materials/mp-1222520,6.458975382903392,86.81834040032277,-5.231395841865057,93.37930642535963
-3.29595843,-13.18383372,6.009119277552906,0.9208440983333328,0.00036289999999999993,0.0,225,4,75.16822801820364,272.017,mp-631553,Ga2BSb,https://materialsproject.org/materials/mp-631553,88.09959419355553,-2.072496254700533,67.79383414897977,45.64728783984112
-8.24167700125,-65.93341601,5.338343723126387,-0.17993088093749954,1e-07,0.0,194,8,88.95314903729425,285.9688772,mp-9956,AlCr2C,https://materialsproject.org/materials/mp-9956,31.475644443788266,58.08278189984439,82.13666344871262,19.770380571433805
-8.6068317775,-172.13663555,6.723694323210869,-0.4155100624519989,0.00013155,0.0,62,20,188.3863954349066,762.7959999999998,mp-1246927,Cr2NiN2,https://materialsproject.org/materials/mp-1246927,30.207077376051053,56.66346761215303,76.1551324480729,8.942852896106023
-5.523058876875,-176.73788406,4.283568651949891,-1.7278602115624997,21.9999999,0.5888999999999998,2,32,283.37128743074123,730.991765,mp-1175521,Li9Co7O16,https://materialsproject.org/materials/mp-1175521,9.675219975592427,86.80776826387128,8.611591973970189,96.45256213509441
-5.804452569375,-185.74248222,4.22866571817649,-1.8691036059974997,21.999999399999997,0.5621999999999998,12,32,283.9127608146362,723.001465,mp-1175474,Li9Mn2Co5O16,https://materialsproject.org/materials/mp-1175474,11.895714659360506,86.31314428352768,8.143065101215855,95.52964107203634
-7.272307901176469,-494.51693728,3.5001345478528267,-3.3689487274999994,7.25e-07,3.0398,8,68,656.9565436997402,1384.7529264,mp-531782,MgAl6O10,https://materialsproject.org/materials/mp-531782,2.369732295273056,62.39885686059115,8.559243394107435,52.53200847658682
-7.13611263625,-57.08890109,4.248868308764443,-0.2762413262500001,6e-07,0.0,194,8,133.3338405915328,341.1650772,mp-1823,Ti3Al,https://materialsproject.org/materials/mp-1823,60.802863816418466,53.57068518092407,80.57067609827699,18.422339394206496
-7.4935189175,-59.94815134,9.409151804959288,0.2412530699999991,0.0001864,0.0,223,8,127.07516043930306,720.049,mp-30830,V3Pb,https://materialsproject.org/materials/mp-30830,45.30104554318061,38.52621320088003,48.55577855931443,-0.3274076049800623
-6.01971951,-96.31551216,3.940805205171945,-2.04822092637,7.9999997,0.9272,1,16,139.688315791487,331.5094850000001,mp-1174382,Li5Mn2CoO8,https://materialsproject.org/materials/mp-1174382,6.49580619136612,86.26456579664041,-4.962591904593191,94.60563537361305
-9.119387044166666,-109.43264453,11.40687366194734,-0.21508072416666715,3.825e-06,0.0,38,12,169.20466197549038,1162.3311199999996,mp-1217864,TaVNi,https://materialsproject.org/materials/mp-1217864,71.13861852565459,49.74432510165038,71.03328167441725,21.515722056840943
-6.1074319895,-122.14863979,4.511412331146335,-1.9694616943749992,8.0000002,0.0,2,20,175.01637041722557,475.490785,mp-756240,Li5Cr2Co3O10,https://materialsproject.org/materials/mp-756240,2.812804266883948,82.31575731112305,8.307743608458248,84.06456239912237
-7.0921869425,-56.73749554,8.460278543702163,-0.3509360199999998,3e-07,0.0,223,8,133.6896276313199,681.135138,mp-1786,Ti3Au,https://materialsproject.org/materials/mp-1786,45.34899908285599,38.46371691163905,48.54216373196085,-0.40176438357597416
-9.108902035,-36.43560814,10.066295380202089,-0.3788634900000005,0.00018869999999999998,0.0,51,4,64.60237037655207,391.62376,mp-11515,NbRh,https://materialsproject.org/materials/mp-11515,67.72044237749432,59.69397565611786,87.81024802679858,18.737593183509745
-9.091529475833333,-109.09835371,5.765886165957799,-0.4560929853566656,1.3909044,0.0,36,12,117.43940055526916,407.78458,mp-1246797,Mn2CrN3,https://materialsproject.org/materials/mp-1246797,22.01863578161369,52.130042995450324,44.80524241146097,36.98363918258576
-8.61166011,-51.66996066,10.722149688494886,-0.3426551066666666,4.8e-06,0.0,10,6,92.52470555391865,597.43476,mp-1220379,NbRh2,https://materialsproject.org/materials/mp-1220379,66.9741960842503,61.16274380995696,88.43109966955382,17.48175626799543
-7.25694325,-29.027773,17.47473117267772,-0.4445202400000001,1.3026950000000002,0.0,221,4,60.45438601058375,636.1935,mp-372,VPt3,https://materialsproject.org/materials/mp-372,57.404474730561866,58.270702633728,81.53671526093903,12.197804478800592
-4.900417777,-49.00417777,3.937667549866779,-0.14758115733333313,0.00537005,0.0,99,10,169.90681334603696,402.9032316,mp-1217033,TiAl3Ge,https://materialsproject.org/materials/mp-1217033,58.550581061959285,53.947857835630906,75.85584657541219,13.532623832149188
-4.9534207075,-19.81368283,8.984081708359922,-0.8437214250000009,5.400000000000001e-06,0.0,225,4,75.05612742923908,406.07921,mp-1187590,TmMgPd2,https://materialsproject.org/materials/mp-1187590,87.99705382707558,-2.3808390295451978,68.11192108778741,45.85072400008943
-9.714311463333333,-116.57173756,12.258938884966664,-0.18025968333333253,0.0004508,0.0,38,12,158.1453169871904,1167.5087,mp-1218022,TaCrCo,https://materialsproject.org/materials/mp-1218022,69.87820428231764,50.15016789099364,72.1400056328451,19.419839237071518
-6.880091815999999,-34.40045908,18.385269533821468,-0.10728792399999916,1.0951546,0.0,166,5,75.17539755142784,832.3321,mp-1226207,CrPt4,https://materialsproject.org/materials/mp-1226207,62.499839931097895,60.116972625350925,84.95904742954532,13.292054852192972
-6.027494080535715,-337.53966851,4.854939267671066,-2.091082514464285,2.000002475,3.0433,212,56,572.5467948079029,1673.9624,mp-21650,Li2NiGe3O8,https://materialsproject.org/materials/mp-21650,1.6381259133680632,67.83028578757806,17.59017534246052,82.62807694704415
-9.131042597142855,-127.83459636,5.724756109975161,-0.4207757110200002,6.98534295,0.0,194,14,150.15412630587798,517.6606700000002,mp-1245850,Mn3CrN3,https://materialsproject.org/materials/mp-1245850,25.6268172729929,54.437077396946975,70.276139484217,-1.5567322435382192
-6.6523742725,-26.60949709,11.159864692651071,-0.053182045000000684,0.03948630000000001,0.0,166,4,61.77994343085685,415.2,mp-1221429,MoPd3,https://materialsproject.org/materials/mp-1221429,66.92091831938515,61.22939930368807,88.73540741157557,17.63981546536495
-4.6695361625,-18.67814465,12.708908619981447,-0.194192407500001,0.0,0.0,221,4,68.41894679432366,523.6433,mp-569785,TlPd3,https://materialsproject.org/materials/mp-569785,63.64205882887524,54.22984865637135,56.541176188587684,36.596144080955746
-9.45010834875,-75.60086679,15.081060320657347,0.7709739043750012,0.0,0.2793000000000001,198,8,89.07293537362897,808.9628,mp-1080659,OsC,https://materialsproject.org/materials/mp-1080659,49.76010586922655,19.71575256325137,67.90534916209431,10.363964676018087
-9.718977775,-58.31386665,13.349115407604733,-0.08148565666666603,1.45829735,0.0,74,6,86.7796631028083,697.6239099999999,mp-1216584,UMnFe,https://materialsproject.org/materials/mp-1216584,72.31960773404164,50.088746173669776,71.09713650751344,23.313791487774683
-5.508597725,-22.0343909,5.183922764932488,-2.1607298043749994,0.0,0.7438000000000002,123,4,34.80739003603998,108.6628,mp-1222306,LiGaO2,https://materialsproject.org/materials/mp-1222306,-10.824431386530788,73.11765607702552,-6.942624981503353,64.782133265786
-5.2065025225,-20.82601009,7.909310650241548,0.0972916112500002,2.8999999999999998e-06,0.0,139,4,67.356472812362,320.8255000000001,mp-973883,Ge3Rh,https://materialsproject.org/materials/mp-973883,58.975406403159724,48.774452631117896,58.38001245396656,38.640096575538074
-6.2294529007142865,-87.21234061,4.326390792882873,-1.7254490629942854,4.9999997,0.20730000000000004,2,14,141.86603521854417,369.61967999999996,mp-1176657,LiMnCoO4,https://materialsproject.org/materials/mp-1176657,12.07995389378226,77.15926034169856,17.437616335593205,82.60835410848267
-6.1699172625,-49.3593381,16.840677144647447,-0.6902697924999996,2.95e-06,0.0,127,8,120.73596372765444,1224.4670772,mp-1079182,AlPt3,https://materialsproject.org/materials/mp-1079182,56.933540209576435,58.15045098574284,80.75794694558577,12.048752883241114
-5.83150644,-23.32602576,10.897651261942023,-0.6979779749999997,6.7e-06,0.0,225,4,66.81361700965336,438.479,mp-977538,ErZnRh2,https://materialsproject.org/materials/mp-977538,95.8774854923044,9.166512068399518,62.082894515763854,65.18871029547306
-6.8325081007142865,-191.31022682,3.7429156828074484,-2.541060142994285,3.00000055,1.7180000000000002,62,28,271.2612337138193,611.4327344000002,mp-770386,LiMnAlO4,https://materialsproject.org/materials/mp-770386,-6.866245474911008,68.72298206359247,-8.059841177751856,62.505514949921576
-5.8054466965625,-185.77429429,4.245320696911668,-1.8700977331849995,22.0000001,0.4769999999999999,1,32,282.79893188824815,723.001465,mp-1175578,Li9Mn2Co5O16,https://materialsproject.org/materials/mp-1175578,10.31185058297351,87.08394311085688,8.394512568180021,95.62939625893057
-5.6657868175,-90.65258908,3.9441938922330375,-1.8344385319350005,7.999999799999999,0.0,10,16,141.25029340356116,335.504635,mp-1174028,Li5Mn(CoO4)2,https://materialsproject.org/materials/mp-1174028,6.19260189899491,86.88903794374197,-4.198726072181587,93.98034245658918
-7.51353626,-30.05414504,8.456753054615424,-0.6507043050000014,3.0299999999999998e-05,0.0,63,4,77.6173966301739,395.288,mp-13495,ZrPd,https://materialsproject.org/materials/mp-13495,63.746722989561434,32.902735044262684,58.122054916876046,9.27357706413338
-8.5762022525,-34.30480901,11.864398585379377,-0.2649564224999992,8.8e-05,0.0,225,4,69.52628131721674,496.75888,mp-861980,PaGaTc2,https://materialsproject.org/materials/mp-861980,93.87114220193632,8.199757617727853,58.33034376399133,67.26641335445109
-6.3447811825,-25.37912473,5.349154848290262,-0.10372896125000076,0.0001042,0.0,221,4,64.8830094835136,209.01,mp-866186,Ti3Zn,https://materialsproject.org/materials/mp-866186,60.637258022148075,53.84789687512136,81.05396600086881,17.643001521632176
-5.3551738725,-21.42069549,4.890085123236965,-1.5983673104999996,0.0,0.8321999999999998,166,4,38.68471249993219,113.92176428,mp-18921,NaCoO2,https://materialsproject.org/materials/mp-18921,15.08865940054635,65.23539400139676,12.676188780429248,68.0183907360785
-6.215627561111112,-447.52518439999994,3.667427809611033,-2.2099386229405558,31.0023137,1.119,1,72,628.0557174745168,1387.109215,mp-768929,Li24Mn7Cr5O36,https://materialsproject.org/materials/mp-768929,-11.175771359521766,100.15170363173101,-12.345986631830652,98.27337152611223
-3.954949599583333,-94.91879039,2.7461989763647168,0.19670683041666712,4.44125e-05,0.0,10,24,389.2901888993856,643.808,mp-1073366,MgSi2,https://materialsproject.org/materials/mp-1073366,58.49927795233308,48.05894371772057,73.28402540135113,8.681991329127216
-5.797889854999998,-115.9577971,3.827087190214601,-2.208333099875,1.00000015,0.17710000000000026,2,20,162.79498314413266,375.1978,mp-756210,Li3SiNiO5,https://materialsproject.org/materials/mp-756210,3.883296499969978,80.67191830828313,-5.690075388467852,83.25581570781429
-4.61017023,-9.22034046,19.34098604347598,0.05505503500000053,3e-07,0.0,187,2,33.65988031919972,392.050569,mp-1186779,PtAu,https://materialsproject.org/materials/mp-1186779,69.0429670688663,56.965430882430724,57.32304643671854,41.23649215011308
-6.9494363125,-27.79774525,17.705053972996193,0.5708087078515636,7.499999999999999e-06,0.0,139,4,61.48909018938207,655.6110000000001,mp-1184783,Ir3Se,https://materialsproject.org/materials/mp-1184783,58.56475834926548,58.280502128176224,82.76499112540759,12.770616155192904
-3.631567915,-14.52627166,7.802323870597675,-0.14866300374999986,0.0,0.0,221,4,61.53516224396068,289.1333800000001,mp-953,NbZn3,https://materialsproject.org/materials/mp-953,59.83408275874053,55.906435113438995,85.2578991271654,15.82351739528332
-8.336644065,-200.07945756,13.30727956247142,0.2477400284722222,4e-07,0.0,227,24,311.15957493032846,2493.5803088000002,mp-18503,Al2Re3B,https://materialsproject.org/materials/mp-18503,52.24427343651529,18.07313734020165,70.67961150117627,14.87329121794835
-7.381207885,-29.52483154,10.153206185296012,-0.29621359874999964,2.5365487,0.0,139,4,61.57871044547844,376.5171,mp-1018066,CrSnRh2,https://materialsproject.org/materials/mp-1018066,59.096308157867206,57.9523369896762,82.91999193075114,12.659197141068836
-7.080753515,-28.32301406,9.113780851866286,-0.7923137362499997,0.0003911,0.0,225,4,67.8747372666933,372.526912,mp-862635,ScSbRh2,https://materialsproject.org/materials/mp-862635,96.03812929605476,8.635016898756836,62.95219225682681,65.18661955906
-5.859417247916666,-140.62601395,4.11388455755631,-1.9120184111216656,14.0000003,0.4384000000000001,5,24,212.82276836939647,527.2554749999998,mp-1174907,Li7Mn2(CoO4)3,https://materialsproject.org/materials/mp-1174907,15.410805206985048,89.03876985723097,7.868236658863951,93.0409255230394
-6.848007611666668,-205.44022835,2.701805847247888,-0.1681675288333338,0.0,2.140599999999999,74,30,218.87059345964047,356.1168,mp-568803,Mg(B6C)2,https://materialsproject.org/materials/mp-568803,5.569447441678681,59.36785840880812,71.62480568880805,13.78900746875977
-10.902765747777776,-98.12489173,15.469247130168698,0.38780906142889016,3.713333333333333e-05,0.0,164,9,122.9159365802677,1145.0601,mp-27943,W2N,https://materialsproject.org/materials/mp-27943,49.83686408838901,19.933106982829823,74.46130219122203,9.171021219297439
-6.700992418333333,-120.61786353,4.080138238428772,-1.5783107455444438,13.9964318,0.0,12,18,215.7931777558341,530.229025,mp-756191,Mn5CuO12,https://materialsproject.org/materials/mp-756191,6.986859268130468,70.36136040110779,14.851634409677509,83.91308093573055
-5.8004385284375,-185.61403291,4.261774453368716,-1.865089565059999,16.0000003,0.4919000000000002,2,32,281.7071085638289,723.001465,mp-1175531,Li9Mn2Co5O16,https://materialsproject.org/materials/mp-1175531,18.85172721039964,88.78357371775247,10.068468346532523,90.6653606647644
-7.047898445,-28.19159378,10.4010544376363,-0.2276352125000001,3.3892274,0.0,139,4,61.21275880037876,383.41600000000005,mp-1206853,FeSbRh2,https://materialsproject.org/materials/mp-1206853,59.129711517313616,56.619410078143865,82.93029343660339,12.740109665416169
-3.638277075,-29.106216600000003,9.584428667002577,-0.19510000374999992,9.5e-06,0.0,194,8,129.84231592101278,749.4340000000002,mp-866108,HfZn3,https://materialsproject.org/materials/mp-866108,50.675368358395396,38.36776436349213,76.21408328158611,14.787275393203553
-5.89397230625,-94.3035569,4.435564200810094,-1.899026505625,4.0000002,0.0,74,16,141.18896181481296,377.1382,mp-762507,Li2CrNiO4,https://materialsproject.org/materials/mp-762507,13.49201037215849,79.5765950979799,23.929302288229326,83.64174431501976
-5.7777525475,-46.22202038,4.490991050641304,-1.8009698407449992,1.8175803,0.0,119,8,70.81099989461909,191.511045,mp-1177894,Li2MnNiO4,https://materialsproject.org/materials/mp-1177894,13.841676032687955,77.88056446991806,8.654089364769414,75.18360740169523
-5.792622995625,-185.36393586,4.231678939161614,-1.8572740322474992,21.9999995,0.3721000000000001,12,32,283.7105971105531,723.001465,mp-1175395,Li9Mn2Co5O16,https://materialsproject.org/materials/mp-1175395,11.974746137300059,86.37713824924568,8.14400429613875,95.55008885866819
-9.119103935,-164.14387083,5.969499872775854,-0.6364358079096285,0.20323929999999998,0.0,2,18,180.05755804770706,647.29196,mp-1245741,Ti(MnN)4,https://materialsproject.org/materials/mp-1245741,25.703517737656775,54.8923806233301,71.2644707037079,8.657958616348251
-6.222609335,-49.78087468,16.915041071547602,-0.5333101168749987,2.35e-05,0.0,65,8,120.31354504434843,1225.5710385999996,mp-1228017,AlSiPt6,https://materialsproject.org/materials/mp-1228017,56.889672578504474,58.160416940785176,80.6220939726327,12.042054294248345
-6.503971425,-78.0476571,4.183073611506784,-1.4751538310733339,8.0000003,0.0,166,12,141.46104057361472,356.355335,mp-756525,Mn3CuO8,https://materialsproject.org/materials/mp-756525,6.941296562095264,70.38373710682271,15.716265042128954,83.85512618838025