energy_per_atom,energy,density,formation_energy_per_atom,total_magnetization,band_gap,sgr,num_sites,cell_volume,weight,mp_id,formula,URL,tsne_cry_0,tsne_cry_1,tsne_xrd_0,tsne_xrd_1
-6.574219599999999,-26.296878399999997,4.231715373406527,-1.7923593545312508,5.9999989000000005,0.0,123,4,87.51966805561922,223.035,mp-1222312,LiEuS2,https://materialsproject.org/materials/mp-1222312,14.368986162122395,8.721832403844521,-31.278018219221085,-73.03126163011505
-3.3063205208333333,-79.3516925,5.760344599793607,0.07790865666666669,2.8333333333333336e-07,0.0,8,24,739.6549726056352,2565.834,mp-676663,ZnSnSb2,https://materialsproject.org/materials/mp-676663,30.861687954988774,-5.138336995210039,3.986347767011425,-12.203977323471634
-7.542367580454546,-331.86417354,3.5923118743753286,-3.2489590799377286,6.65e-06,5.3962,4,44,500.81448425706077,1083.4324127999998,mp-1202821,Sr3B6O11F2,https://materialsproject.org/materials/mp-1202821,-18.89510392276752,-29.48177878534912,4.506497321750807,-24.466482826343668
-5.91650763125,-47.33206105,5.2107069245912525,-2.83129056375,0.0,2.1109999999999998,221,8,164.45602171664737,516.0566,mp-1078915,Ba3CaO4,https://materialsproject.org/materials/mp-1078915,3.8091572141535037,-60.72213002378562,-26.95757939356949,-70.3190516510412
-7.643652948333334,-229.30958845,4.635944480110648,-3.310304381583334,0.0,3.6476,147,30,487.3413495545454,1360.5747199999998,mp-28940,Sr4Nb2O9,https://materialsproject.org/materials/mp-28940,-17.475591919712514,-79.54066978250603,12.663124729012331,-72.18964564226461
-5.520638038214287,-154.57786507,5.373422179246838,-2.079658394107144,0.0,2.38,62,28,657.0402307414388,2126.14968,mp-17043,Tm2ZnS4,https://materialsproject.org/materials/mp-17043,4.792419373700446,-0.985399924919966,-12.130314933574901,-14.686565215152042
-5.018193498333333,-60.21832198,3.1323950675985404,-1.5443981222483334,1.99999995,0.0,26,12,145.92460921584782,275.26816,mp-642654,SrH2O3,https://materialsproject.org/materials/mp-642654,-16.039825197672293,-27.09454587231946,-30.22461503692884,-36.39509633138289
-4.443547541,-44.43547541,5.3874364710456755,-3.00696008695538,0.0066383,0.0,225,10,187.20709820779732,607.3728616000002,mp-1113308,Cs2AlHgF6,https://materialsproject.org/materials/mp-1113308,-54.25452339643007,-72.4363319316044,-58.9981177151645,-63.53114872366829
-6.88936009875,-55.11488079,6.3441377178045775,-1.7400460755524998,4.763088099999999,0.0,129,8,176.3836560383027,673.8788900000001,mp-18755,NdMnSbO,https://materialsproject.org/materials/mp-18755,19.28074146300864,-38.57566511974503,20.14085520842808,-40.506013542030495
-4.064630201363636,-89.42186443,4.291903154991154,-1.6584198054170831,0.0,1.6566999999999998,12,22,412.9467026980874,1067.3204384,mp-1191037,AgAs(SeF2)3,https://materialsproject.org/materials/mp-1191037,-2.2950726521121934,-6.7659444649109695,-17.544618137796487,-27.18809605706055
-4.892906305,-48.92906305,3.8988535087520746,-3.1872735791162987,0.0,4.2037,225,10,181.7443118860548,426.72555779999993,mp-1114386,Rb2AlInF6,https://materialsproject.org/materials/mp-1114386,-52.36454570533064,-69.29689898801658,-57.13921358213614,-67.10795487972993
-4.5606399007142855,-127.69791722,3.9582078695782434,-1.7240414431834974,0.0,2.7857000000000003,14,28,715.1296722819827,1704.6464,mp-757084,Rb3SbO3,https://materialsproject.org/materials/mp-757084,-4.396505925277415,-29.89594745781646,-5.202932724795779,-32.019045922281606
-3.52245714,-24.65719998,5.207537051037119,-0.3381160125297623,4.8200000000000006e-05,0.0,82,7,208.33333301805342,653.3442,mp-1025331,In2AgSe4,https://materialsproject.org/materials/mp-1025331,15.362559733211894,14.91494861045897,5.920231268274034,-16.667851812750758
-6.84234870875,-164.21636901,3.4757407973189713,-3.0173823459027784,0.0,4.369999999999999,14,24,293.09113598925967,613.4808,mp-10814,SrLiBO3,https://materialsproject.org/materials/mp-10814,-18.98751756815631,-29.32044380134657,-17.460382772505824,-29.973397185759605
-6.0805852796428566,-170.25638783,5.587396131263559,-2.5210009662500004,5.610000000000001e-05,1.7249000000000003,62,28,713.3897487764824,2400.42,mp-1192439,Ba(ErS2)2,https://materialsproject.org/materials/mp-1192439,7.1534943586665625,-3.9352957355506963,-7.45633455418653,-12.863517068553286
-3.37786962,-10.13360886,4.698739349737188,-0.37984053666666706,0.0,0.0,191,3,42.51484339118606,120.302,mp-728,Li2Pd,https://materialsproject.org/materials/mp-728,26.802129719438444,20.061260560956622,4.183431001843831,-11.548304123627831
-6.509096942222223,-58.58187248,5.264819164435037,-3.602015005876112,1.9936568,0.0,139,9,160.21696283899618,507.9756128,mp-1218416,SrCe2(SF2)2,https://materialsproject.org/materials/mp-1218416,14.419745063103775,-6.064722304350005,4.666229120530124,-10.214670066177336
-8.230456801666667,-197.53096324,4.569498437719804,-3.46014289578125,0.0,4.1762,152,24,281.0496118937759,773.3969099999998,mp-6267,LaSiBO5,https://materialsproject.org/materials/mp-6267,-20.370471936291846,-30.49054280894725,-17.9136915716722,-26.03597703849568
-3.91333946375,-31.30671571,3.036565693030396,-1.1909107699999997,6.73e-05,1.6826,194,8,465.5526003825239,851.3386439999999,mp-1186991,ScI3,https://materialsproject.org/materials/mp-1186991,-2.32591189089681,-7.609033293562184,-30.202290001051892,-17.54473036063418
-7.967799784285715,-223.09839396,4.850026090879639,-3.0896929358630945,0.0,3.3482000000000003,2,28,372.07645331463755,1086.7438,mp-556474,Pr2B2MoO9,https://materialsproject.org/materials/mp-556474,-55.04472327288297,-48.607884045302455,-31.001919224392232,-45.82175578531084
-5.551351367857144,-77.71891915,5.19449929838105,-0.6769143899776792,6.00000005,0.4344999999999999,44,14,310.3050314569922,970.6964,mp-1226388,Cr2CdSe3S,https://materialsproject.org/materials/mp-1226388,5.379772876297056,26.322450456478144,-19.607117230989445,-76.53611011496537
-5.952997035357143,-166.68391699,6.146944213167987,-0.4928176032142854,0.0,0.2272999999999996,14,28,782.6493917140754,2897.1930399999997,mp-29072,Nb2SiTe4,https://materialsproject.org/materials/mp-29072,21.424689346798004,1.3064615966449775,0.1980894596562648,-16.717441394216234
-7.705565404444443,-69.35008864,5.128869642919602,-0.8155520885311103,0.3333339,0.0034000000000000696,8,9,167.30985760908712,516.7662,mp-1220310,NdN2,https://materialsproject.org/materials/mp-1220310,-7.9941545599289885,-4.2240835376453765,-24.298807447763227,-32.11435915507995
-4.11240583,-16.44962332,4.771146378553492,-0.3629574017968751,2.05e-06,0.5078,63,4,137.59324321393586,395.34,mp-628773,SnSe,https://materialsproject.org/materials/mp-628773,30.61606504379137,-7.0301798977324745,9.659903207413707,5.36432061728338
-7.94763202612245,-389.43396928,4.828607075648828,-3.136537459795918,0.9999998999999999,1.1604,1,49,700.7562009253096,2037.69756,mp-769499,LiLa8V8O32,https://materialsproject.org/materials/mp-769499,-20.60566853826596,-35.78707038540825,-16.91742009173854,-26.347191518886408
-3.792547856,-37.92547856,4.418158867403631,-0.4911697801379312,5e-07,1.0692,63,10,321.1203157382276,854.3976,mp-1205560,Rb2As2Pd,https://materialsproject.org/materials/mp-1205560,-8.665914359778258,-0.6875181034083723,-34.67506058770122,-40.945497601146215
-5.30096301375,-84.81540822,2.9538285754932962,-1.8856823163412495,5e-08,4.3486,4,16,157.01263941880012,279.29992000000004,mp-626727,SrH4O3,https://materialsproject.org/materials/mp-626727,-15.9403925677452,-27.12781466161593,-35.01205295388068,-35.314940258273296
-6.306924155535714,-353.18775271,5.8081434437572,-1.8786905292857143,6.0003215999999995,0.3428,176,56,903.5654920871614,3160.4424,mp-1209442,Sm7(BrO6)3,https://materialsproject.org/materials/mp-1209442,-14.21637126867073,-28.02214227394494,-17.513229911514113,-16.87358108784834
-3.5204461662857143,-246.43123164,3.60919730467302,-0.26264101845714266,1.7e-06,0.0,7,70,2806.863427509779,6100.7442,mp-676920,K7(Si2Te5)4,https://materialsproject.org/materials/mp-676920,-2.587572106195249,-6.2008116658510755,-32.59064593409354,-31.46958733979687
-6.592136207083333,-158.21126897,3.7773522688852,-2.6750402354270832,0.0,4.1782,2,24,311.25757860856567,708.04087856,mp-557840,NaLa(SO4)2,https://materialsproject.org/materials/mp-557840,-34.50913380625506,-24.869901970806225,-36.98387124967976,-32.23695181266204
-3.72803609,-11.18410827,2.414998541419143,-0.14574946679333325,0.0478241,0.0,160,3,96.76169670341964,140.725,mp-1247049,KSrN,https://materialsproject.org/materials/mp-1247049,-5.47303335469276,-18.952911058003235,-20.010792877385487,-16.761973516643742
-6.418667037857142,-179.72267706,3.31257660258213,-2.3891239501785715,0.0,1.3574999999999997,62,28,613.1532311965236,1223.167296,mp-17678,Sr(ScS2)2,https://materialsproject.org/materials/mp-17678,31.311528709228448,-19.221626391544472,3.819143394160265,-21.68447713003179
-8.1650355325,-32.66014213,4.859637064290106,-2.41140042828125,6.7711372999999995,0.0,123,4,89.34025536817366,261.458,mp-1227084,CaGdS2,https://materialsproject.org/materials/mp-1227084,24.66507923045283,9.873777719960485,-30.77014467702268,-72.1029707663043
-3.7439038355555563,-67.39026904,4.277122891926852,-1.0966452451851856,1e-07,2.3863000000000003,128,18,621.400347226725,1600.568,mp-610738,Zr(InBr3)2,https://materialsproject.org/materials/mp-610738,-2.1490804659662603,13.942732100005715,-0.16504007193857476,-35.357757236197074
-3.70902067625,-29.67216541,4.2906110571732805,-0.684338028796875,3.65e-06,0.0,108,8,244.38438310846803,631.4566,mp-571016,KSnSe2,https://materialsproject.org/materials/mp-571016,8.396233637277644,1.3352619178616532,-18.586270263207076,-28.896610458027357
-8.216992251333334,-123.25488377,6.973254771737262,-3.775104907583334,0.0,3.6443,12,15,240.37921214194532,1009.4466,mp-556995,Nd2O3,https://materialsproject.org/materials/mp-556995,-8.597888143463205,-62.582288273757655,-0.4213887465006294,-59.003742884131725
-6.908655872666667,-414.51935236,3.2677717700612283,-2.63305088965,1.000000625,2.1927000000000003,62,60,940.365111402298,1850.5428,mp-554684,K2SrV3O9,https://materialsproject.org/materials/mp-554684,-51.02457532399833,18.94852855196288,-8.885984112257914,16.962942564983067
-4.453838109166666,-160.33817193,3.89258827858238,-1.6650451243199231,0.000267325,0.0,14,36,900.3245741133777,2110.5152,mp-779000,Rb4SbO4,https://materialsproject.org/materials/mp-779000,-4.527003176516415,-29.60366800471321,-6.173017254574453,-31.269984893131713
-7.49327676,-142.37225844,4.0596006783206695,-2.7363770642324563,5.9999765,0.0,12,19,275.73966880442686,674.1142,mp-1228517,Ba2Ti4O13,https://materialsproject.org/materials/mp-1228517,-16.540753524040216,-22.552732861532235,-16.10887256607106,-21.22368594685676
-8.290744508,-248.72233524,4.8919469972175165,-3.3170760973611104,0.0,4.4817,2,30,315.715978584101,930.0990800000001,mp-752449,La2B4O9,https://materialsproject.org/materials/mp-752449,-18.309841462632424,-30.19322508606319,-30.45343559381937,-37.0567964951184
-5.312137575,-21.248550299999998,4.675971237765012,-2.174434214617458,0.0,2.3359,166,4,110.8327136429996,312.0978,mp-7046,RbDyS2,https://materialsproject.org/materials/mp-7046,5.206089222219804,-3.975490317512498,-3.2133092055715884,-5.296927188583059
-8.089836952,-40.44918476,6.691224177055763,-3.6674481942500012,0.0,1.6476,115,5,86.54024581094261,348.7182,mp-1219167,Sm2O3,https://materialsproject.org/materials/mp-1219167,-18.375618335385514,-68.20650034607607,-6.833363769349022,-68.07473916215001
-6.0949955525,-73.13994663,4.417164838198527,-3.580796668453333,4.99999995,3.2831,36,12,201.69225755069263,536.5173156000001,mp-556850,BaMnF4,https://materialsproject.org/materials/mp-556850,-13.213291829650618,-22.64015400656703,-15.95654634545059,-16.949728024221262
-5.30309041375,-84.84944662,2.982040373954163,-1.8878097163412495,0.0,4.3448,26,16,155.5272105232756,279.29992000000004,mp-28420,SrH4O3,https://materialsproject.org/materials/mp-28420,-15.937470877782044,-27.132430938669557,-35.03673895623241,-35.32400839522664
-4.84641922,-348.94218384,3.536425710101763,-0.845497045607639,0.5889061,0.0,14,72,1681.2087081069035,3580.4456,mp-1179436,SrSb4S7O6,https://materialsproject.org/materials/mp-1179436,-5.058247693934815,-5.448507460315568,-32.15675878039335,-33.61275862986089
-6.41920161475,-256.76806459,5.756719858673687,-2.4540108501875,1.25e-08,1.8079999999999996,122,40,915.9283331371984,3175.32,mp-32645,Sm2S3,https://materialsproject.org/materials/mp-32645,17.945758456550458,-4.443629292927636,8.912387853265427,-8.717895997016345
-5.404442735,-129.70662564,4.570501274871171,-3.2261473331291657,6.99999955,3.6099,11,24,404.53652960693114,1113.4545348,mp-554990,Ba2MnNiClF7,https://materialsproject.org/materials/mp-554990,-12.93395301775465,-22.09276381594916,-14.278702737348606,-19.169799249381487
-7.5846139325,-212.36919011,6.612160806203165,-3.533121708214286,0.0,3.0973,62,28,492.03056384515463,1959.2344,mp-2892,BaNd2O4,https://materialsproject.org/materials/mp-2892,-7.6459580183755715,-62.68895211592927,-0.37519210076891296,-58.87486794278963
-8.311039882222222,-149.59871788,6.148217465612911,-2.821687415173612,11.99999855,0.0,15,18,233.3473946158361,863.9788,mp-542297,Eu2SO6,https://materialsproject.org/materials/mp-542297,-11.999978251886766,-58.82805474899397,-17.744132051247888,-56.760238363951885
-4.883709685714286,-68.37193559999999,3.756362070188168,-0.02701264668367287,0.0,0.8283000000000005,8,14,293.66781007659324,664.3159820000002,mp-27821,Ag3P11,https://materialsproject.org/materials/mp-27821,-7.358107436950736,-2.4889969739988542,-34.14977482195344,-46.704746408288095
-8.351151139772726,-367.45065015,4.334393890205927,-3.652368751250002,0.00063055,5.1998,14,44,609.8770365971646,1591.9211999999998,mp-1201353,PrYSi2O7,https://materialsproject.org/materials/mp-1201353,-25.19693352027729,-36.82234925273142,-31.097510029485658,-45.78618540742722
-7.1376166988888885,-256.95420116,4.440415097870873,-2.5630842550555557,0.0,3.6325,15,36,590.8927980232663,1580.09492,mp-556638,K2Th(MoO4)3,https://materialsproject.org/materials/mp-556638,-51.9783530335156,-51.8360535316943,-25.912855948563266,-52.52620064465991
-4.950099877272726,-54.45109865,9.564032439211747,-0.2472997218181816,7.85e-05,0.0,148,11,277.35474203448695,1597.451,mp-1217357,Te8Ir3,https://materialsproject.org/materials/mp-1217357,28.900724648363404,25.769530426123534,38.116573231234014,-24.533763046093807
-7.106288815263157,-270.03897498,2.6536941778270804,-2.8243918249649114,0.0,4.5627,2,38,463.85102324926805,741.2766156800002,mp-6775,Na3Sr(BO2)5,https://materialsproject.org/materials/mp-6775,-24.60819594377421,-1.7789084053008382,-33.49901683991885,-35.41706413323525
-3.9417090371428567,-27.59196326,4.521575513479048,-0.8345775742857141,1.26e-05,1.5010000000000003,97,7,239.43940555289157,651.9830772,mp-37091,Sr(AlTe2)2,https://materialsproject.org/materials/mp-37091,1.187828639895135,-28.56927911618553,-27.007866029057922,-34.208881584377764
-5.8935016009375,-377.18410246,5.7660290767721145,-2.8179971753125,1.410625e-05,2.3017,57,64,1412.9902970530911,4906.4448,mp-1178531,BaO,https://materialsproject.org/materials/mp-1178531,24.783704863081432,10.826257228463273,-5.749910873591382,-86.02844180948034
-4.392923362777776,-79.07262053,4.150112395157558,-0.8156951244708992,0.0,0.5903,58,18,493.2596043927889,1232.7820960000001,mp-28324,Sr3(InP2)2,https://materialsproject.org/materials/mp-28324,5.476475598500715,-32.757479390749026,6.432269106578251,-25.841536675945182
-5.610940125,-89.775042,5.893639709247713,-1.7093923432812508,0.0,1.6113,62,16,329.76852449825293,1170.4252800000002,mp-12453,HoCuS2,https://materialsproject.org/materials/mp-12453,16.175843182094336,-12.98860894339426,-10.404651265460636,-16.719203684985978
-7.091118813513514,-262.3713961,4.204567234504792,-2.4669099929560816,4.335336,0.0,12,37,886.1826158534075,2243.85835,mp-1199263,Ce4(YS2)11,https://materialsproject.org/materials/mp-1199263,16.45944447900794,4.493056897153906,-3.8282006475087296,-14.482264758535841
-3.78487498078125,-242.23199877,4.202924349407983,-0.44360749443797065,2.00177765,0.3840000000000001,33,64,2318.8548067171937,5869.161215199999,mp-1226719,Cs2Sn4Se9O,https://materialsproject.org/materials/mp-1226719,-4.142456685465951,2.119513134773121,-37.694361159001346,-35.257070105252986
-4.714014827734375,-603.39389795,5.061043289145131,-1.0455670705880542,1.5330063,0.0,12,128,4723.257398771758,14395.6929558,mp-1227847,CsZr18(PI14)3,https://materialsproject.org/materials/mp-1227847,10.2732119342075,8.014465067880844,-6.07045802766621,-5.312899028920094
-4.3997065925,-87.99413185,4.492249861134428,-0.7711868645000003,0.0,0.5940999999999999,13,20,680.4702414505225,1840.8735199999999,mp-28038,NbTeBr3,https://materialsproject.org/materials/mp-28038,0.5923090616607379,2.2906475042652583,0.4395764429915973,-22.335824327195844
-4.731732414318182,-416.39245246,3.187624334648638,-0.5007493564671592,2.3825e-05,1.2201000000000004,64,88,1578.6077989397834,3030.34648,mp-736261,Sb4H8C2S7N,https://materialsproject.org/materials/mp-736261,-6.532585355056347,-2.911954889122926,-32.70539250526211,-44.99675056888483
-2.07405425625,-33.1848681,5.550622973626604,-0.3430225337500001,0.0,1.6871,62,16,700.1563130819247,2340.3868399999997,mp-28329,TlI3,https://materialsproject.org/materials/mp-28329,-0.5773326978437828,-26.26859915051158,-25.705832796100946,-50.31911390330618
-6.670416631527778,-480.26999747,5.6632427537393655,-2.392318748750001,0.0,3.2146000000000003,62,72,1125.0211325814387,3836.8672,mp-558484,Nd2Te3MoO12,https://materialsproject.org/materials/mp-558484,-47.74415380694645,-52.67347358345235,-23.44648684552328,-57.45575742741785
-6.28577946,-50.28623568,6.503622495144132,-0.0752654399999999,16.5049246,0.0,164,8,185.67513511226826,727.210235,mp-1221907,Mn3CrTe4,https://materialsproject.org/materials/mp-1221907,22.011434055349522,8.453264947154889,56.55752879868661,-23.677163008493352
-4.907893645952381,-206.13153313,6.1995944630629465,-2.173339979274207,0.0,1.9925,148,42,701.6933435182843,2619.760248,mp-40373,In14Ga3Pt2O8F15,https://materialsproject.org/materials/mp-40373,-6.231894819687742,-1.9883016025967195,-27.536245821727892,-41.26418489333521
-4.598749703999999,-91.97499408,5.0725907863148105,-1.2465789090949997,0.0005488,1.1252,166,20,618.6437292318248,1889.82397,mp-1228784,Ba10IBr4N5,https://materialsproject.org/materials/mp-1228784,0.15034026031959766,-27.48711660241162,3.6942664118465047,-58.63790015268389
-4.455712154285714,-62.37997016,4.891489276665071,-0.7049348607738101,0.9997229,0.0,166,14,301.2229497227981,887.3195949999998,mp-1226122,CoAg2Sn3S8,https://materialsproject.org/materials/mp-1226122,4.452134380461208,26.390253659013037,-19.79716360824687,-77.69697197104416
-3.737101092916667,-89.69042623,6.496581533051107,-0.941080112057292,0.0,2.3228,72,24,539.9726580224718,2112.5528,mp-557637,Hg2SeO3,https://materialsproject.org/materials/mp-557637,3.6879793897269337,-7.313793688927122,-21.016775622582095,-44.79115345155743
-5.905544401,-59.05544401,4.425489668227332,-2.3349847319687504,0.0,3.7052,11,10,161.02872447814488,429.1564,mp-3395,SrSeO3,https://materialsproject.org/materials/mp-3395,8.430947246472027,-32.22522977910673,3.0716627664806198,-32.07848955302095
-5.381014375,-75.33420125,5.219679320964693,-1.2609176266071438,11.6276864,0.0,166,14,300.05270683229264,943.175,mp-1215982,Yb3Fe3S8,https://materialsproject.org/materials/mp-1215982,3.5181371626790483,26.60070472355921,-22.21733891812933,-81.04696468230722
-7.108701210238094,-597.13090166,3.0893600545878552,-3.3803659783882654,0.0001145,5.403499999999998,143,84,1101.944359264719,2050.1191504,mp-686571,Ca10P6ClO24F,https://materialsproject.org/materials/mp-686571,-18.51876243513365,24.76604085719865,-11.365805891792158,16.64193041485817
-8.249423204583334,-395.97231382,4.600071366966722,-3.4161260676041665,0.3333333333333333,0.1837999999999997,1,48,559.6743434027751,1550.42541,mp-1223448,LaCeSi2(BO5)2,https://materialsproject.org/materials/mp-1223448,-20.343901157044392,-30.50532483781135,-17.90926432368601,-26.06130948429741