energy_per_atom,energy,density,formation_energy_per_atom,total_magnetization,band_gap,sgr,num_sites,cell_volume,weight,mp_id,formula,URL,tsne_cry_0,tsne_cry_1,tsne_xrd_0,tsne_xrd_1
-4.8336363125,-19.33454525,10.791365209188797,-0.7948914262500004,3e-07,0.0,225,4,69.73935613927877,453.216,mp-865563,LuZnPd2,https://materialsproject.org/materials/mp-865563,95.24366720338922,4.61817095210638,65.36371776189368,65.31338964355639
-10.52650556,-84.21204448,12.88757839740635,1.32895158,0.000459175,0.0,182,8,186.51821757651882,1447.58304,mp-1095086,Ta,https://materialsproject.org/materials/mp-1095086,52.7200539383574,40.25047197588242,76.05908274683635,15.4540040331373
-4.644547851290323,-143.98098339,4.321879436534977,-0.9685030814677424,3.9999997000000005,0.5941999999999998,1,31,348.94149832199224,908.18887712,mp-764295,Na4(NiO2)9,https://materialsproject.org/materials/mp-764295,6.992028843053428,74.27898090996948,18.371854730360656,91.40714326445185
-7.8773703225,-31.50948129,8.741675352307407,-0.32244344874999964,1.84e-05,0.0,225,4,72.11113938924423,379.619,mp-865870,LiZr2Os,https://materialsproject.org/materials/mp-865870,87.21891144573496,-0.5860833978466135,66.24766226011694,46.6022885692414
-5.8255483125,-23.30219325,7.746730011510081,-1.108806644375,2e-07,0.0,166,4,42.303099737885866,197.351995,mp-18919,CoPdO2,https://materialsproject.org/materials/mp-18919,24.722731416455602,50.25596080950624,10.47864068128247,44.111771434771654
-6.149796615555554,-55.34816954,6.548611366285612,-0.40935180472518495,0.0980759,0.0,123,9,103.28760580090784,407.33182,mp-1080554,Ti4H3Pd2,https://materialsproject.org/materials/mp-1080554,46.990926401981724,32.86410881884779,80.44833508710039,20.10827458331792
-7.782976818947367,-147.87655956,7.188206112791035,0.005311602155790011,2.2019455000000003,0.0,12,19,172.87159435622328,748.3332949999998,mp-1246172,Mn3(CoN)8,https://materialsproject.org/materials/mp-1246172,30.244807380021214,56.91668666768301,76.19567915390375,9.009957397349462
-5.249255493,-104.98510986,4.5580941366816665,-1.5622834834229995,8.0000007,0.0,2,20,176.47349161587934,484.4106450000001,mp-850209,Li5Mn(Ni2O5)2,https://materialsproject.org/materials/mp-850209,11.67525179562569,80.33850794426341,23.07096296649775,84.21975158430202
-7.057911586666666,-42.34746952,9.378274910593335,-0.5155036863888883,0.0025223000000000003,0.0,191,6,64.74824990219025,365.680585,mp-5353,ErCo3B2,https://materialsproject.org/materials/mp-5353,55.2835524781271,26.258983054620966,68.25361060973209,19.324354913149396
-5.882686508333332,-35.29611905,4.236154943166294,-1.2379388458333338,2.9999999,0.0,10,6,70.07868951616935,178.775795,mp-755732,FeCoO4,https://materialsproject.org/materials/mp-755732,5.289604118320839,71.93723804484671,16.296147679304422,84.53090613423224
-8.152617496666666,-48.91570498,14.206026476522881,0.013172053749999671,0.0018737000000000003,0.0,227,6,82.84837672704505,708.7736,mp-1532,NpNi2,https://materialsproject.org/materials/mp-1532,71.64112260882983,50.157087050517504,71.77908461202117,22.40887643023481
-5.475945935909091,-120.47081059,4.888356479152003,-1.409174078496364,12.9999994,0.31830000000000025,5,22,209.30468063277482,616.1588899999998,mp-758846,Li3Mn2Ni5O12,https://materialsproject.org/materials/mp-758846,11.358480886111385,79.09813684381393,28.47877127423705,77.3380850939832
-6.506984975,-26.027939899999996,4.982300093208527,-2.431928516875,0.0,1.7996,166,4,40.836514233837306,122.52633859999999,mp-3748,AlCuO2,https://materialsproject.org/materials/mp-3748,24.602760290424282,50.35158264807588,46.800983623716284,28.037251432253303
-7.073505475,-14.14701095,8.195472005878559,-0.5358708233333339,0.1477059,0.0,123,2,31.261114269039016,154.287,mp-1056985,TiPd,https://materialsproject.org/materials/mp-1056985,58.554503207136754,54.59089780292041,80.10729616024095,14.96779540228515
-4.062364185,-16.24945674,10.543622117170633,-0.40456275500000016,0.0,0.0,139,4,66.80260082322461,424.1643,mp-12716,LiTlPd2,https://materialsproject.org/materials/mp-12716,49.06598749445816,37.592462183515046,57.89793923025961,32.95958638435593
-4.80439022,-19.21756088,10.502313641361166,-0.7775679712500008,2.8999999999999998e-06,0.0,225,4,70.70491356429127,447.18321,mp-865298,TmZnPd2,https://materialsproject.org/materials/mp-865298,95.2107180802988,4.37795839632067,65.52762227833126,65.29724391988675
-6.38059739625,-51.04477917,7.04281592404341,0.1666937406575002,1.17e-05,0.0,139,8,69.5600513409748,295.02386,mp-1079801,NbNi3(HC)2,https://materialsproject.org/materials/mp-1079801,29.85538680241571,58.95117232197321,58.2157951430266,38.51299805287711
-6.190825882222222,-445.73946352,3.732013461997464,-2.1932094302161107,34.9999996,1.24,5,72,622.4226911314831,1398.8769949999999,mp-770668,Li24Mn11CrO36,https://materialsproject.org/materials/mp-770668,-11.290473647990858,100.7259219919676,-12.132359396495568,98.91179702538813
-5.343540734492754,-368.70431068,4.366627391208808,-1.4987870012318838,13.6666666,0.2392000000000003,1,69,661.4780534049518,1739.45214,mp-760155,Li5Co4(NiO6)2,https://materialsproject.org/materials/mp-760155,8.97932408757953,74.71844851448499,20.847962956784876,84.60194755751138
-4.4991112025,-17.99644481,10.819593747380974,-0.7701636000000001,1.22e-05,0.0,225,4,69.92374999516521,455.603,mp-865756,YbGaPd2,https://materialsproject.org/materials/mp-865756,95.26974761493945,4.561287645067336,65.43752169391765,65.28321579793825
-6.776750045,-27.10700018,10.769750800887131,-0.5947788387499999,0.00016659999999999998,0.0,225,4,70.61184148676888,457.96691200000004,mp-862629,ScRh2Pb,https://materialsproject.org/materials/mp-862629,88.21403411118246,0.8399680779665939,65.62660700708865,48.248002825671854
-7.046133693571428,-98.64587171,5.6395420344939975,-0.4060339327885702,0.0,1.6596000000000002,227,14,135.08716392059628,458.7846,mp-1020663,Si(GeN2)2,https://materialsproject.org/materials/mp-1020663,2.7288995692967015,67.32266167244515,11.550994761719725,53.99149799785489
-5.90655533,-70.87866396,4.107046294521746,-2.131346916875,8.000002799999999,0.9166,164,12,105.79593787690816,261.66732859999996,mp-1222590,Li3Al(CoO3)2,https://materialsproject.org/materials/mp-1222590,12.119257557868867,81.31585110857762,3.2556774415971077,90.11421568980124
-4.03231075,-32.258486,2.8587152235489572,0.13121522196428614,0.00049835,0.0,194,8,130.01983135602566,223.83675559999998,mp-1183180,Al3P,https://materialsproject.org/materials/mp-1183180,67.97558750564261,59.260795735618466,87.8818467638483,18.820738167730887
-1.3990131875,-5.59605275,5.568682560660566,-0.04330932874999993,1.6e-06,0.0,221,4,65.76097516426587,220.53200000000004,mp-1094867,MgZn3,https://materialsproject.org/materials/mp-1094867,59.65894385368102,53.32777918978635,80.54620751314106,17.787409583942488
-8.85473940125,-70.83791521,6.2537078472554235,-0.7892637516066667,0.0446099,0.0,194,8,69.95375370968526,263.4508,mp-1246645,TiFeN2,https://materialsproject.org/materials/mp-1246645,29.390004259428046,59.99434152806653,83.14878256095685,21.611218515946923
-5.7571949075,-23.02877963,16.47968048740328,0.13787535446428656,2.1000000000000002e-06,0.0,139,4,62.09264409203272,616.2257619999998,mp-1186368,PPt3,https://materialsproject.org/materials/mp-1186368,57.344877864784486,58.016530374409825,80.90264342005833,12.69791532196588
-5.821924630357144,-163.01388965,4.246638887299796,-1.881411435515,5.9999996,0.5424000000000002,1,28,244.44042853629762,625.12847,mp-1174674,Li4MnCo2O7,https://materialsproject.org/materials/mp-1174674,9.5527123800745,84.80143690717928,10.691780585672264,92.6812373221995
-7.213077608000001,-36.06538804,7.512862456173545,0.1110637110479999,0.7044521,0.0,164,5,44.279990345653154,200.338245,mp-1245787,Mn(NiN)2,https://materialsproject.org/materials/mp-1245787,30.25606660084645,56.89974320586745,85.8872587501476,17.305537165695313
-6.175009949583332,-148.20023879,4.63072680914269,-1.3638467450799998,21.0000001,0.0,8,24,254.6720331156397,710.201075,mp-772328,Mn2Fe3Co3O16,https://materialsproject.org/materials/mp-772328,0.3972748397942073,72.23889317928894,2.061566971109339,58.61572751630413
-6.190838801111112,-445.74039368,3.727960245621981,-2.193222349105,35.0000018,1.2313,1,72,623.0994187996843,1398.8769949999999,mp-770492,Li24Mn11CrO36,https://materialsproject.org/materials/mp-770492,-11.296794777199645,100.71662991973169,-12.126165542614036,98.9040660136816
-8.787997208,-43.93998604,7.877937040631572,-0.2325656304759988,8.771267199999999,0.0,221,5,59.38325927851203,281.72633500000006,mp-582028,Mn3RhN,https://materialsproject.org/materials/mp-582028,50.97723413446618,61.79831102334808,83.67839541267334,11.420508630301047
-5.3443678525,-21.37747141,10.867528407497414,-0.8661625099999997,3.11e-05,0.0,225,4,69.90977142945009,457.53,mp-865607,LuGaPd2,https://materialsproject.org/materials/mp-865607,95.2809739125161,4.5689091796049786,65.4380393693327,65.29805808783118
-7.1030642,-28.4122568,2.9655490863507654,-3.1251063493750006,0.0,7.459799999999999,186,4,28.010130437105012,50.023164,mp-2542,BeO,https://materialsproject.org/materials/mp-2542,32.419272263040924,60.19725440704526,86.39308802970508,17.582048318069102
-5.79984633,-185.59508256,4.261375850602933,-1.8644973666224995,20.0000001,0.33840000000000003,2,32,281.73345902822143,723.001465,mp-1175600,Li9Mn2Co5O16,https://materialsproject.org/materials/mp-1175600,11.37064285217577,85.97216055664414,8.845254790364663,95.34511706864978
-7.09596058,-14.19192116,2.9707496519347725,-3.118002729375,2e-07,6.8508,216,2,13.980548086949062,25.011582,mp-1778,BeO,https://materialsproject.org/materials/mp-1778,32.420869166745966,60.19633516309188,78.71636452316392,22.308228191088013
-4.821277135,-77.14043416,4.36505098639049,-1.327512256875,1.000000025,0.0,12,16,148.5652659779719,390.5328,mp-25258,LiNiO2,https://materialsproject.org/materials/mp-25258,8.324559561458651,74.71754691475934,17.067741496681194,88.72957066135805
-3.2914614025,-13.16584561,14.68637608467504,-0.35925201750000024,7e-07,0.0,221,4,67.59583357739318,597.8407070000002,mp-11248,LiAu3,https://materialsproject.org/materials/mp-11248,50.226521346515725,36.16854775020862,58.25234337608918,34.36032100267519
-9.549906776875,-763.99254215,6.180705884844023,-0.9657247674459996,4.506215825,0.0,14,80,750.5493208784123,2793.62574,mp-1245484,Mn3V8N9,https://materialsproject.org/materials/mp-1245484,29.849202686174888,58.832840059898956,83.04207511522603,22.371875180117808
-5.473528686176472,-186.09997533,4.794719021641705,-1.691460325,2.99999965,0.5901999999999998,186,34,275.97592898655546,796.86596,mp-780140,Li5(CoO2)4,https://materialsproject.org/materials/mp-780140,9.190803864916317,74.89243502210509,2.9552540966218905,60.75508343548086
-5.545979314166666,-66.55175177,4.507115073238248,-1.7180938210416663,4.999999900000001,0.0,12,12,105.44441061859484,286.2023,mp-754431,Li3Cr(NiO3)2,https://materialsproject.org/materials/mp-754431,12.244267156795793,79.54858403853919,23.785465206926087,83.9807185554097
-4.766867565384616,-61.96927835,6.4122510562005415,-0.6462136232692308,0.0149727,0.0,225,13,138.79558476492028,535.9658,mp-1147668,Cu6NiO6,https://materialsproject.org/materials/mp-1147668,29.113342558651247,59.664065648447504,55.25229411124298,36.950808405699576
-5.501258086666668,-132.03019408,4.251320385509925,-1.7407263139583335,14.0000001,0.5746000000000002,2,24,209.0636378316496,535.245775,mp-1174804,Li7Co5O12,https://materialsproject.org/materials/mp-1174804,8.605066950720522,85.36414436805394,10.687788964737237,94.96429903284351
-4.97301167,-19.89204668,17.47596362201559,-0.2017064062499996,5.539999999999999e-05,0.0,65,4,66.29085945247033,697.663,mp-1067236,CdPt3,https://materialsproject.org/materials/mp-1067236,63.70384797800888,58.34968993413332,57.569862850721734,38.05682045719047
-7.288961223333334,-21.86688367,15.990240138243726,-0.19799220333333287,4.5284969,0.0,164,3,46.222943387495434,445.106045,mp-1221567,MnPt2,https://materialsproject.org/materials/mp-1221567,62.61343860585432,58.73322750063087,77.49432361918689,14.502579203309574
-4.865157261309523,-408.67320995,4.879017224875884,-1.3307665777083335,26.995623699999996,0.0,2,84,733.0312931045371,2153.802,mp-698842,Li19Ni23O42,https://materialsproject.org/materials/mp-698842,11.246201438468203,79.99528448328911,12.506694226636407,94.61029855500584
-2.6370427175,-10.54817087,1.9130847578965409,-0.0015527837500002304,1.6800000000000002e-05,0.0,225,4,72.5956719093105,83.6365,mp-1067042,LiMg2Si,https://materialsproject.org/materials/mp-1067042,89.05868840591478,-0.6957905748870085,67.8769400383015,47.88019664926258
-9.027100128333332,-108.32520154,10.846231679921457,-0.5748892291666662,3.9987678,0.0,194,12,169.2043339756808,1105.201,mp-1223824,Hf2Fe3Si,https://materialsproject.org/materials/mp-1223824,71.2995588941947,49.932519396298936,70.97024332429254,21.588469117298512
-7.089572765,-42.53743659,4.089557095168394,-1.779162934486666,0.0,1.4741,166,6,70.60032261561294,173.87368999999998,mp-25424,MnO2,https://materialsproject.org/materials/mp-25424,6.443796918011301,70.85726875308241,15.82590457953723,84.08410529090945
-9.990013465,-39.96005386,14.605157041734278,-0.5015304349999994,5e-08,0.0,123,4,64.83442832608318,570.24676,mp-1359,NbIr,https://materialsproject.org/materials/mp-1359,63.00063746908042,55.85349319042665,80.62207055504474,15.777255253106913
-8.66535428,-69.32283424,15.495814492930544,-0.2057683000000008,4.25e-07,0.0,38,8,124.74509521198256,1164.096,mp-1221441,MoPt,https://materialsproject.org/materials/mp-1221441,61.51089394002923,58.17624839360881,81.74909811653434,14.424201530649299
-10.485323391666666,-62.91194035,14.426987210650722,0.3980998327083339,1.32726275,0.0,227,6,81.46192329521708,707.75218,mp-1928,PuMn2,https://materialsproject.org/materials/mp-1928,71.5898314944917,50.241420516327246,71.67424504455462,22.24677666351857
-7.942019675,-31.7680787,11.664599128582756,0.15885563999999966,0.0367504,0.0,221,4,66.29714641658322,465.71,mp-1183778,DyRu3,https://materialsproject.org/materials/mp-1183778,61.995306089756404,54.64800195108091,57.669821420796325,38.27559603387277
-7.049168941666667,-42.29501365,9.272026852813195,-0.504985943055555,6.68e-05,0.0,191,6,65.07315316152344,363.351905,mp-5313,HoCo3B2,https://materialsproject.org/materials/mp-5313,55.28689213869843,26.247299700710354,68.27423859336389,19.32339155126189
-4.76658745,-19.0663498,13.339962114644651,-0.06457558000000052,3.0299999999999998e-05,0.0,221,4,64.25913086879767,516.2265689999998,mp-999298,Pd3Au,https://materialsproject.org/materials/mp-999298,62.35336102039471,55.86038690790689,80.92446071020467,15.910066828641307
-6.71109610875,-53.68876887,7.224534369905743,0.3269914849999997,2.1763553,0.0,223,8,121.92727724531989,530.471,mp-568564,V3Cd,https://materialsproject.org/materials/mp-568564,49.88415545347965,40.7626489004456,70.25234712633724,19.24893300056041
-6.190766524722222,-445.73518978,3.7262507370966436,-2.19315007271611,35.0,1.2616999999999998,5,72,623.3852808749241,1398.8769949999999,mp-770669,Li24Mn11CrO36,https://materialsproject.org/materials/mp-770669,-11.283709751663173,100.72533219964605,-12.14694255132368,98.8785900849448
-8.54525679125,-68.36205433,10.757882810645649,0.22595021499999926,5.655e-05,0.0,194,8,127.40816743611086,825.42,mp-1187397,Tc3Sn,https://materialsproject.org/materials/mp-1187397,67.38057526837262,60.727914432247964,88.19097593381214,18.485471151847822
-6.153085062142857,-172.28638174,4.763098906005865,-1.8150525485714288,0.0,0.38180000000000014,186,28,257.7169209593526,739.2365699999998,mp-757835,Li2VCo3O8,https://materialsproject.org/materials/mp-757835,-1.016669374852569,72.10474162796187,2.8781278206978063,58.47319024024373
-9.301443303333334,-223.23463928,11.359805391873847,-0.34348012,2.917243625,0.0,194,24,339.34047424572367,2321.44,mp-1191401,HfFe2,https://materialsproject.org/materials/mp-1191401,71.23967536633225,49.75290018815628,71.13035339058773,21.602815985243886
-5.1246629546666655,-76.86994432,4.451820392632245,-1.3843403020000002,1.0000003,0.0,166,15,142.0181463225001,380.7434,mp-756498,Li3FeNi3O8,https://materialsproject.org/materials/mp-756498,12.173241309728697,80.74763248001429,22.725953560108987,84.0597875371608
-6.158119901428571,-86.21367862,5.201380669236892,-1.9353354885714285,4.0000007,3.3854999999999995,227,14,133.74639111193045,418.9398,mp-18766,Si(NiO2)2,https://materialsproject.org/materials/mp-18766,2.8992632160632663,67.02857897637101,11.499544308380008,53.935884177279036
-7.697369855555554,-138.55265740000002,7.163893224458494,0.014754074497779534,0.00492565,0.0,2,18,160.72404301679032,693.3952499999998,mp-1246097,Mn(CoN)4,https://materialsproject.org/materials/mp-1246097,29.833581494171753,56.59625204135168,76.13572253184059,8.965571644130431
-5.61224985,-22.448999399999998,4.880569505942435,-1.3801095040300009,0.0,0.0,166,4,31.281155040754186,91.939935,mp-27913,CoHO2,https://materialsproject.org/materials/mp-27913,1.9180174057384671,71.85353692612499,14.69271337531518,84.7879617733977
-9.1606696825,-36.64267873,7.479894880667598,-0.2194860137500001,4e-07,0.0,221,4,68.11072755713312,306.80464,mp-1004,Nb3Si,https://materialsproject.org/materials/mp-1004,48.67007084512176,36.04963820721096,56.786951200640324,36.07366741755804
-6.2578409879166665,-150.18818371,4.774202048217155,-1.39643572375,10.999999800000001,0.2014,8,24,245.78161091523185,706.644675,mp-756555,Cr3Co5O16,https://materialsproject.org/materials/mp-756555,0.6415658297828131,72.27362287850279,2.460879048839895,57.92426885019938
-5.637434455740742,-304.42146061,1.5131561411131476,-1.7298939386574066,6.111111111111111e-07,0.0,1,54,1381.984045297814,1259.3245896,mp-1245110,Al2O,https://materialsproject.org/materials/mp-1245110,8.87255417485783,65.22351573064813,21.892848252963514,56.809517208812274
-4.850980163333333,-14.55294049,16.84856134416566,-0.01478266999999948,2.47e-05,0.0,156,3,49.12762717287675,498.47056900000007,mp-1219928,PdPtAu,https://materialsproject.org/materials/mp-1219928,63.67324143550836,58.53506044034463,82.66286880299872,17.19137285016123
-9.071200426,-45.35600213,10.330540980727813,-0.2123910544759994,8.8474201,0.0,221,5,59.64090471970336,371.037835,mp-22502,Mn3IrN,https://materialsproject.org/materials/mp-22502,55.36844508830984,57.783591131583684,81.03771705524326,11.468941164573348
-9.423588469285717,-131.93023857,4.570588454490742,-0.988230644931428,0.6719518,0.0,176,14,151.75539896356446,417.7026,mp-1080199,V3N4,https://materialsproject.org/materials/mp-1080199,27.75130601368048,55.519398102538034,13.131135226800833,69.24272713281573
-2.92812096,-11.71248384,5.263423660182007,-0.17812631000000012,2.37e-05,0.0,139,4,68.17978469967791,216.11,mp-1185332,LiGa3,https://materialsproject.org/materials/mp-1185332,48.425292685500175,36.08021504267536,56.89867954228568,34.21277666102
-4.6399535996428565,-129.91870079,4.287940936098978,-1.001014278142858,1.000000075,0.0,7,28,316.5820536378535,817.49667712,mp-1176434,Na(NiO2)2,https://materialsproject.org/materials/mp-1176434,7.119730581208656,74.17548278224133,17.724428508075587,90.93528682747356
-9.294321513333333,-111.53185816,11.31387507308197,-0.3363583299999995,3.06951785,0.0,194,12,170.35903808895057,1160.72,mp-956096,HfFe2,https://materialsproject.org/materials/mp-956096,71.26737229186274,49.75999464694829,71.08445527776901,21.566476654977212
-3.6079666375,-14.43186655,6.673768880717793,0.06154782819000015,0.0,0.5918000000000001,186,4,32.12407845453838,129.10788,mp-24093,CuH,https://materialsproject.org/materials/mp-24093,32.220036422014616,57.91170883364333,87.67077711422799,19.09205798109113
-3.489373655,-13.95749462,16.267167550472625,-0.0093343650000004,1e-07,0.0,139,4,66.8052777265657,654.4457070000002,mp-1184018,CuAu3,https://materialsproject.org/materials/mp-1184018,63.72211668614704,55.25866543348722,56.87086142376221,36.510222330992605