energy_per_atom,energy,density,formation_energy_per_atom,total_magnetization,band_gap,sgr,num_sites,cell_volume,weight,mp_id,formula,URL,tsne_cry_0,tsne_cry_1,tsne_xrd_0,tsne_xrd_1
-7.673346205,-92.08015446,2.697717404715064,-3.0472970225000005,0.0,4.7881,1,12,147.9359189612524,240.3372,mp-556788,SiO2,https://materialsproject.org/materials/mp-556788,-80.43068634250996,30.502606795902718,-79.23086355141167,42.20166631286567
-5.7898617178125,-185.27557497,4.238312520315617,-1.8545127544349995,16.000000699999998,0.39190000000000014,1,32,283.26654838569806,723.001465,mp-1175920,Li9Mn2Co5O16,https://materialsproject.org/materials/mp-1175920,19.127298475971614,89.7693327731653,10.313202584224502,89.93667699157456
-5.13007924,-30.78047544,9.660053927786167,-0.35420841250000024,7.1e-06,0.0,216,6,86.99903093605704,506.10995,mp-1077082,TbCdNi4,https://materialsproject.org/materials/mp-1077082,70.57143010144132,47.46540966168576,73.58091482053764,24.00294419172759
-7.7795995016666675,-1120.26232824,1.0428149373622912,-3.153550319166667,2.5625000000000003e-07,6.106,230,144,4592.446338067415,2884.0464,mp-559829,SiO2,https://materialsproject.org/materials/mp-559829,-81.63247073996284,31.817560675209407,-81.7515532717562,42.600388564063095
-3.986877487083333,-95.68505969,2.7733087996574795,0.16477894291666692,6.1125e-06,0.0,74,24,385.4847748640023,643.808,mp-1100459,MgSi2,https://materialsproject.org/materials/mp-1100459,58.423546436858,47.95531933031728,73.83611320589125,6.787055681313424
-8.744750415,-52.46850249,19.191756134653314,-0.7550454349999995,0.0,0.0,63,6,98.82995682626068,1142.23176,mp-30849,TaPt2,https://materialsproject.org/materials/mp-30849,65.35292726473891,38.51914109826272,79.07262324307756,23.670552997081785
-4.643548313888889,-167.16773930000002,4.937214713112248,-0.9420764336944449,3.000311,0.0,62,36,375.4356447437616,1116.26787712,mp-1101477,NaNi3O5,https://materialsproject.org/materials/mp-1101477,16.55929545697843,63.54608211880976,7.0532486270514125,47.515818624153226
-7.2966979638235285,-496.17546154,3.519875211371113,-3.3933387901470584,8.5e-07,3.7839000000000014,8,68,653.2721068102118,1384.7529264,mp-530216,MgAl6O10,https://materialsproject.org/materials/mp-530216,2.4098689579593686,62.374860168393475,8.459923232281664,52.486845266707675
-5.8007928234375,-185.62537035,4.223952631662814,-1.8654438600599992,17.9999997,0.5504000000000002,1,32,284.22955068439603,723.001465,mp-1175886,Li9Mn2Co5O16,https://materialsproject.org/materials/mp-1175886,18.080817143735615,88.7408164429079,8.58274788784487,90.65954940820262
-6.4172674575,-51.33813966,16.718540820410936,-0.5183164912500002,5e-08,0.0,12,8,121.83729123089418,1226.675,mp-13363,SiPt3,https://materialsproject.org/materials/mp-13363,59.37755800855908,31.445647082717013,71.56402016919823,13.28376993473227
-1.8908500275,-15.12680022,0.5677492134645348,0.017122622500000073,0.0136246625,0.0,220,8,162.4069388849621,55.528,mp-567337,Li,https://materialsproject.org/materials/mp-567337,39.125071766780785,34.808912653354426,87.71410587158934,43.685253337872496
-7.329579329137932,-425.11560109,3.17263819042538,-3.3920438962672415,0.0,4.6023999999999985,8,58,636.3264605626649,1215.7700492000001,mp-532424,KAl11O17,https://materialsproject.org/materials/mp-532424,3.034118936872676,61.755954664785406,7.978875558193067,52.894337395915535
-1.4135381658333337,-16.96245799,4.939392412443911,-0.030208629166666633,7.5e-08,0.0,38,12,208.5987716650929,620.4920000000002,mp-1094191,MgZn2,https://materialsproject.org/materials/mp-1094191,47.429054671404245,32.74787751017297,80.47896983007001,20.277699113491792
-5.793218115384616,-150.623671,4.11527500039748,-1.3778699357692317,23.0000657,0.0,10,26,295.3961568096047,732.073375,mp-752817,Li2Fe3Co5O16,https://materialsproject.org/materials/mp-752817,11.019363297467883,75.6114471637715,17.879192752291928,78.87135346368287
-8.424321043125,-134.78913669,4.318763712930796,-0.8219543230649986,1.0,0.0,33,16,164.6255964641279,428.1616,mp-1246004,VSiN2,https://materialsproject.org/materials/mp-1246004,21.075101341486075,52.25483596897242,9.25144480991907,45.805291378847464
-3.408092524166667,-81.79422058,2.456587817992608,0.10673353833333367,1.1458333333333333e-05,0.0,12,24,424.9624781394976,628.6859999999998,mp-1073739,MgSi,https://materialsproject.org/materials/mp-1073739,45.09672039687626,24.0081597451275,71.92045355200399,8.471079780032296
-6.110546255,-24.44218502,10.540230339406346,-0.11198207500000112,4.3035456,0.0,221,4,59.09515034699726,375.105,mp-21845,FePd3,https://materialsproject.org/materials/mp-21845,58.85516837835434,57.13463245275464,83.93404759276935,11.394875534429968
-2.4711200075,-9.88448003,9.369245549990064,-0.0314081212499997,0.008600499999999999,0.0,221,4,68.94602841224811,389.0136,mp-864794,ZnAg3,https://materialsproject.org/materials/mp-864794,52.275483766049845,31.05138113293143,55.945179186078136,38.01632744105577
-7.794145375625,-124.70632601,3.2749237748202784,-0.5791657590024997,0.0006005,5.5029,33,16,99.45472473406538,196.145128,mp-1189451,BeCN2,https://materialsproject.org/materials/mp-1189451,32.092946246652694,64.20207634552999,80.8364346362148,9.549785346122313
-9.11808349,-36.47233396,7.866668485244798,-0.2188303062500001,0.0009374,0.0,225,4,70.11833703357078,332.179912,mp-1188017,ZrScTc2,https://materialsproject.org/materials/mp-1188017,95.62010083915249,4.238213079068373,65.59623003923053,65.00673242943253
-8.680125665,-86.80125665,6.11671596692276,-0.14347091195199935,2.1145817000000005,0.0,36,10,105.18836767283621,387.46898,mp-1245907,Mn2FeN2,https://materialsproject.org/materials/mp-1245907,25.44845163725372,52.845612631840325,50.579546197181465,4.265860586888178
-3.247838467,-32.47838467,5.496934752166399,-0.3151557143333328,0.0014698,0.0,141,10,216.99953373816345,718.3404,mp-1080714,Li2AgSn2,https://materialsproject.org/materials/mp-1080714,30.141665849458114,15.515293158553474,64.93838433256649,44.94370919983824
-5.3845190525,-21.53807621,4.530393022231335,-0.4467218749999997,4.4e-06,0.0,225,4,74.50622018148893,203.27282399999999,mp-1185433,LiSc2Pd,https://materialsproject.org/materials/mp-1185433,84.35935308387336,-4.172588632079104,65.82184239195115,43.328829175241324
-5.61139893,-106.61657967,4.4841614273177095,-1.6274194473378951,9.999999699999998,0.0,2,19,175.42211294150815,473.71429000000006,mp-758690,Li4Mn2Ni3O10,https://materialsproject.org/materials/mp-758690,2.7246234434193637,82.32072210156336,8.2258056363654,83.94025250919172
-6.4224712916666675,-115.60448325,3.0213560849370484,-0.381425865958888,3.1e-06,1.4427000000000003,194,18,203.29339760294124,369.892986,mp-5496,Al5C3N,https://materialsproject.org/materials/mp-5496,21.57675093220221,54.593533000450236,9.601169423012092,45.90535050580634
-3.007599425,-12.0303977,1.7546645842259232,-0.17956150999999965,5e-08,0.0,227,4,64.2056609423812,67.8450772,mp-1067,LiAl,https://materialsproject.org/materials/mp-1067,36.057479187882635,37.95930827276949,46.69517815812625,62.399764097622175
-7.5646371975,-30.25854879,9.956127095611519,0.06317221499999981,1.0655255,0.0,221,4,58.340127676138046,349.791069,mp-570698,V3Au,https://materialsproject.org/materials/mp-570698,54.09754697376019,57.665910103049576,87.3160884072135,1.7843854138664248
-7.217176749999998,-108.25765125,2.4732711277114587,-0.02926075908333322,0.0,1.5111999999999997,166,15,111.29299832775007,165.76409999999996,mp-696746,B4C,https://materialsproject.org/materials/mp-696746,5.759831421962803,57.614367994025315,0.4422398388640231,54.440763680022
-7.19000375,-28.760015000000003,4.295703002145245,-0.5287814908333335,1.62e-05,0.0,65,4,58.72011699720182,151.905,mp-22558,TiSi,https://materialsproject.org/materials/mp-22558,56.14813830301565,52.9229813902589,85.81300715982026,10.560850367293419
-6.961712286,-104.42568429,9.65327305771824,-0.6727513100000001,8.28e-05,0.0,115,15,256.2062026419173,1489.4129999999998,mp-1224437,Hf4Ni3As8,https://materialsproject.org/materials/mp-1224437,58.844301925733745,21.337229407411165,63.16188394335407,-1.8660598004974396
-5.89334859625,-47.14678877,17.58449722786041,-0.3940500643749996,2.22e-05,0.0,121,8,123.97664144605959,1312.8670000000002,mp-1224823,GaGePt6,https://materialsproject.org/materials/mp-1224823,56.48547177106711,42.31081797481708,81.43256184849439,13.56430861607882
-4.48153232,-17.92612928,8.974902610290565,0.8463361212500002,0.00266,0.0,216,4,75.02475685536012,405.494764,mp-631510,HfBe2Bi,https://materialsproject.org/materials/mp-631510,85.99297012963117,-3.0784683177811227,66.77511800291673,44.042584729844435
-8.71046829,-17.42093658,6.530567339692133,0.6969393338100005,0.0049516000000000004,0.0,191,2,27.95634409272853,109.9467,mp-1059462,MoN,https://materialsproject.org/materials/mp-1059462,37.786454120147305,34.879525676566345,47.6714746669032,-0.987719607939343
-6.1499425300000015,-147.59862072,15.394056248151939,-0.8626888700000007,1.275e-06,0.0,51,24,359.97950543876686,3337.1963088,mp-16960,AlPt2,https://materialsproject.org/materials/mp-16960,55.26964585487177,41.3643873750688,72.556389121291,13.651599587744524
-6.4513099575,-25.80523983,6.994059728572209,-0.488275432500001,1.2e-06,0.0,123,4,55.934648966754224,235.5923386,mp-1215308,ZrAlNi2,https://materialsproject.org/materials/mp-1215308,58.54501426932045,50.64875754770072,82.62120882377201,19.67242973534439
-2.948405925,-11.7936237,1.7034135492933091,-0.2370065687499996,0.0,0.10009999999999986,216,4,64.60443711631585,66.2725,mp-1018009,Li2MgSi,https://materialsproject.org/materials/mp-1018009,36.00731247895197,37.950756970166985,46.687717272018034,62.35743458647193
-9.58833654625,-76.70669237,15.982427970022574,0.4410276849999999,5.3e-06,0.0,194,8,137.06111006429728,1319.1917,mp-1187883,YOs3,https://materialsproject.org/materials/mp-1187883,59.775907110931904,34.75963907065284,76.1641595750407,13.911353803294531
-4.77415352,-19.09661408,7.452111078935107,-0.44886890999999984,2.5e-06,0.0,139,4,61.506905605405855,276.0286158,mp-1183175,Al3Pt,https://materialsproject.org/materials/mp-1183175,45.388786731622346,37.95550204265734,4.643030887464184,-9.158554514035734
-7.325103156896553,-424.8559831,3.1711340280429625,-3.3875677240258617,0.00124675,4.5874000000000015,63,58,636.6282889674094,1215.7700492000001,mp-757376,KAl11O17,https://materialsproject.org/materials/mp-757376,3.0738510457067707,61.76787897950094,8.052994814316826,52.769117888010705
-1.50404476625,-12.03235813,4.0346797014563265,-0.06546387374999996,2.7775e-05,0.0,12,8,147.69311118380742,358.856,mp-1094505,MgZn,https://materialsproject.org/materials/mp-1094505,46.204434132611425,34.05216850533318,50.52011713740273,32.73213894750697
-3.33593215125,-26.68745721,5.436266402779344,-0.04122609124999999,0.0,0.06450000000000022,122,8,289.9636817215894,949.282,mp-10063,CdSnSb2,https://materialsproject.org/materials/mp-10063,25.455366453043162,15.835544775193718,65.13483227233931,44.81174121886958
-6.678579755,-26.71431902,10.772061337540213,-0.19577565500000027,1.9919761000000002,0.0,139,4,59.58054682483159,386.50419500000004,mp-1206379,CoSbRh2,https://materialsproject.org/materials/mp-1206379,59.0602669068077,57.20124718959276,82.99066332540322,12.719567910810662
-7.31992991375,-292.79719655,3.4774331261554985,-3.2848395270000013,0.0,3.9675999999999987,1,40,389.50726059493087,815.6902176,mp-684677,Al2O3,https://materialsproject.org/materials/mp-684677,6.29867588776597,64.07131062850246,5.147546555681212,54.028890689698976
-5.77547822625,-184.81530324,4.217631116753984,-1.840129262872499,15.9999995,0.3127999999999997,10,32,284.6555626547279,723.001465,mp-1100694,Li9Mn2Co5O16,https://materialsproject.org/materials/mp-1100694,19.13573157670437,90.93447542604652,9.804391622744435,89.22556552262236
-5.8332828075,-46.66626246,5.838934104972424,0.19259942131000066,0.0,0.0,12,8,88.2210922008795,310.2108,mp-1080203,CuN,https://materialsproject.org/materials/mp-1080203,37.888454754541506,40.208564599167815,13.246182211302381,45.97882269397182
-4.539010728,-90.78021456,5.349370412649153,-0.5574590212500006,2.28043855,0.0,63,20,205.3536980583826,661.54,mvc-894,Ni2O3,https://materialsproject.org/materials/mvc-894,16.7826878934452,63.3388677952984,7.0344592859336785,47.51639330198492
-7.436346955185185,-200.78136779,3.5868325964000225,-3.266797509393703,9.2e-06,4.052200000000001,1,27,254.99265789220604,550.7946246,mp-675682,Al11NO15,https://materialsproject.org/materials/mp-675682,3.5262172528442033,62.0753454719561,8.160569315974103,52.38079028204644
-5.4431702675,-65.31804321,5.700303081120228,-0.1598132641666664,1.5e-07,0.0,182,12,185.70696350847984,637.495386,mp-30337,Al5W,https://materialsproject.org/materials/mp-30337,46.035391539381415,38.1847004931207,76.12372677525497,15.70303150363462
-9.491707222999999,-94.91707223,6.678928619626976,-0.14679561386300008,0.0005258999999999999,0.0,38,10,90.0055591273545,362.0154,mp-1226045,Cr6C3N,https://materialsproject.org/materials/mp-1226045,31.248258286574416,56.27194304845347,73.78044198162665,-2.0811443842994435
-1.3658425172222222,-24.58516531,6.03829768277028,-0.03776433638888873,0.0010272666666666667,0.0,155,18,289.86500286434915,1054.0500000000004,mp-1094194,MgZn5,https://materialsproject.org/materials/mp-1094194,58.269912814411214,48.94427995302886,81.05412099503181,18.492427813316034
-2.8921352566666667,-8.67640577,9.587781031556194,-0.12023452166666655,1e-07,0.0,216,3,74.67012049804734,431.13756900000004,mp-16246,CdSbAu,https://materialsproject.org/materials/mp-16246,86.85690671472211,-2.648330753943711,67.64371755423804,45.7605236538704
-7.6044679014285705,-106.46255062,6.829622890232751,0.059422163265714235,0.00012205,0.0,194,14,133.56269875576072,549.3293699999998,mp-1246033,Fe(CoN)3,https://materialsproject.org/materials/mp-1246033,26.84322805742496,53.75096795524268,70.32436462373354,0.2424547231669118
-9.2585660425,-37.03426417,8.185557822547997,-0.28022813000000113,0.0064713999999999995,0.0,225,4,68.22108736932637,336.293,mp-1187984,Zr2FeTc,https://materialsproject.org/materials/mp-1187984,99.02601818237574,6.916208680920444,65.52177041989523,62.138782307834816
-5.12614837,-20.50459348,14.363205848401964,-0.2469979550000003,7.730000000000001e-05,0.0,194,4,93.01660008467844,804.568,mp-1066274,PtPb,https://materialsproject.org/materials/mp-1066274,48.29613930587178,20.124841597705053,74.32152694076079,16.462633644188006
-8.01787123,-32.07148492,17.105921616548645,0.08181016068999902,3.735e-05,0.0,194,4,35.887832028486564,369.69588,mp-1007761,HW,https://materialsproject.org/materials/mp-1007761,52.980984357014655,28.45921605332321,53.97566143002339,41.9151962858408
-5.787606533571428,-162.05298294,4.1985198517384905,-1.8470933387292852,7.00000025,0.2775000000000003,12,28,247.24194861687766,625.12847,mp-1174548,Li4MnCo2O7,https://materialsproject.org/materials/mp-1174548,19.281534317328745,90.92874301378436,9.928036097441943,89.04166515118551
-7.702533365,-30.81013346,6.839745416152588,0.2834047525000001,5.5e-05,0.0,139,4,73.56756486054569,303.02414,mp-1185904,MgNb3,https://materialsproject.org/materials/mp-1185904,45.047786426650745,33.4019221746943,51.22620659940922,32.90902700314717
-2.87786194875,-23.02289559,6.292274614763952,-0.027452866249999985,2.97e-05,0.12539999999999996,166,8,163.83001054444932,620.80047,mp-1225726,Cu4IBr3,https://materialsproject.org/materials/mp-1225726,23.572365569085022,22.868787122451373,58.22207225580218,-27.050962193911328
-5.7918808453125,-185.34018705,4.237602360189453,-1.8565318819349992,16.0,0.1471,1,32,283.3140197127932,723.001465,mp-1175953,Li9Mn2Co5O16,https://materialsproject.org/materials/mp-1175953,18.518630890288037,88.54324013154478,10.40720304126128,90.737349119931
-6.930981466666667,-124.7576664,3.931802882051206,-1.7178809827666663,18.999999300000002,0.0,12,18,220.68201561364427,522.528025,mp-755276,Mn5FeO12,https://materialsproject.org/materials/mp-755276,7.367784424992622,70.10228535252854,14.555732956111855,83.84513401564656
-6.455132756,-322.7566378,2.3860015913089416,0.22339383733333307,2.2020000000000003e-06,0.0,134,50,376.19605173003305,540.55,mp-570602,B,https://materialsproject.org/materials/mp-570602,5.722435415466883,58.33848673429302,1.1915051269018702,54.711121538206456
-10.093705335,-40.37482134,11.630281234055214,-0.4683867461899993,0.0020525,0.0,160,4,37.671693970010146,263.84950000000003,mp-15226,CrWN2,https://materialsproject.org/materials/mp-15226,51.06617777987317,18.93776896538888,49.80665546080206,6.9339390341812726
-4.574457799,-45.74457799,4.1670542285901115,-0.5083085250000003,0.0,0.0,127,10,202.16536629577968,507.32564800000006,mp-13570,Mg(ScGa)2,https://materialsproject.org/materials/mp-13570,42.367415596644456,16.646605738562805,11.857819480092337,3.098263144346423
-5.82234406642857,-163.02563386,4.194982729769582,-1.8818308715864291,7.00000005,0.20219999999999996,12,28,247.45041787275383,625.12847,mp-1174564,Li4MnCo2O7,https://materialsproject.org/materials/mp-1174564,15.640497905313568,89.86877114144316,7.624368548549429,92.18505771014105
-8.02461268875,-320.98450755,4.829216739726823,-3.5645713954583336,0.0,1.7845000000000004,221,40,488.38755495397385,1420.3396,mp-1075922,Sr7CaTi8O24,https://materialsproject.org/materials/mp-1075922,17.09721558566736,-94.31611216224607,60.722329959076674,-63.957669896656206
-4.065717299999999,-16.262869199999997,5.7776608739162265,0.14158378103500002,6.7e-06,0.0,221,4,17.806867598241336,61.957015000000006,mp-1183678,CoH3,https://materialsproject.org/materials/mp-1183678,33.351048458408314,51.207537660328896,61.9203088983126,-27.458855643504638
-4.77632526375,-76.42120422,3.548484487882201,-2.1973121287349997,0.99999985,0.4990999999999999,13,16,139.93045449332206,299.0240128000001,mp-761272,Li3Ni(OF)2,https://materialsproject.org/materials/mp-761272,2.644858234429218,88.69013114538906,-25.024845178045286,68.86090593298394
-5.78045480375,-184.97455372,4.234777052129552,-1.845105840372499,16.0000005,0.4769000000000001,1,32,283.50303778234553,723.001465,mp-1176042,Li9Mn2Co5O16,https://materialsproject.org/materials/mp-1176042,18.99034459335308,90.33757951994043,10.034140417323256,89.6680651060816
-8.923947472,-44.61973736,7.405081320237551,-0.08381550000000004,1.1e-06,0.0,69,5,89.3849174371571,398.6070586,mp-1220481,Nb4Al,https://materialsproject.org/materials/mp-1220481,65.86939669257008,23.4218053176713,53.35645578987451,26.270631358507146
-5.76451715625,-184.464549,4.207963436654159,-1.8291681928724997,21.9007431,0.0,10,32,285.30955096993284,723.001465,mp-1100697,Li9Mn2Co5O16,https://materialsproject.org/materials/mp-1100697,4.7459934164478605,97.91986708485977,3.2279331183606637,87.52136156675196
-4.29531129,-25.77186774,8.702127989727693,-0.1945033133333336,3.21e-05,0.0,160,6,82.45907060129987,432.130392,mp-1216565,TmBeCu4,https://materialsproject.org/materials/mp-1216565,66.50668342980177,49.585291429544924,71.91153110715473,19.77661788442371
-4.719866795,-18.87946718,7.673377219186179,0.34272045440500065,0.0,0.0,71,4,44.28565206326825,204.6447,mp-1225758,Cu3N,https://materialsproject.org/materials/mp-1225758,31.256975641553865,57.17429711417942,85.917692249669,17.326496428507713
-5.687130093333334,-34.12278056,10.273220934478994,-0.4124147291666673,3.71e-05,0.0,216,6,85.41750027650183,528.4506,mp-568552,LuNi4Sn,https://materialsproject.org/materials/mp-568552,70.77502104596395,48.2380523609372,73.47184718535348,23.579102641235924
-5.819500026071429,-162.94600073,4.1912960418275835,-1.8789868312292868,7.00000045,0.5390000000000001,2,28,247.6680766739241,625.12847,mp-1174455,Li4MnCo2O7,https://materialsproject.org/materials/mp-1174455,2.8409628141402568,95.6090435621332,11.134324450529263,91.09672921855078
-3.113052389285714,-43.58273345,12.53674481066342,-0.4497906224999996,0.0002458,0.0,21,14,271.408639920018,2049.082121,mp-1227416,Ca2(ZnAu3)3,https://materialsproject.org/materials/mp-1227416,58.11087751429932,16.13320363038023,68.21675554795,12.884195695411869