energy_per_atom,energy,density,formation_energy_per_atom,total_magnetization,band_gap,sgr,num_sites,cell_volume,weight,mp_id,formula,URL,tsne_cry_0,tsne_cry_1,tsne_xrd_0,tsne_xrd_1
-6.747977435,-323.90291688,3.5890127589522285,-0.7863483175000011,1.1025e-05,1.7793,14,48,1057.9670521614978,2286.64136,mp-630303,RhC2IO2,https://materialsproject.org/materials/mp-630303,-2.9504255283338234,6.973744885415983,-33.57731365727281,-30.997837653643565
-5.139211953214286,-287.79586938,5.3691888725139885,-1.3303198012500002,0.0,0.7827999999999999,36,56,1076.187400977515,3479.7456,mp-559587,CuSb2BrO3,https://materialsproject.org/materials/mp-559587,-32.5877075369719,-58.861678026459415,-16.66601525503501,-57.347888651972205
-7.921005041489363,-372.28723695,5.426999052282999,-3.358398921501774,0.0,3.9691,189,47,576.9568251207079,1885.61910784,mp-1210255,Na3Nd9B8O27,https://materialsproject.org/materials/mp-1210255,-16.997932118674814,-33.601244525699194,-17.608410873799013,-32.91134096581046
-4.0613525975,-48.73623117,2.2166527024955336,0.09030383250000007,0.00016365,0.0,8,12,241.14474880542858,321.904,mp-1073362,MgSi2,https://materialsproject.org/materials/mp-1073362,33.092328250374216,22.50108507862593,55.24332835960729,-2.9901289477427597
-8.880273053214285,-248.64764549,4.478281049164509,-3.086938022976192,7.00001795,0.4830999999999994,60,28,352.3823884500032,950.3344,mp-540879,Eu(BO2)2,https://materialsproject.org/materials/mp-540879,-18.339388412477852,-28.11682695883061,-18.835073361972025,-16.57554264952643
-7.911254596875,-126.58007355,5.375041195297095,-3.5561887030468746,0.0,3.4394000000000005,146,16,281.62495380489645,911.599,mp-15751,Ba3Y4O9,https://materialsproject.org/materials/mp-15751,-7.7309166707019505,-62.63156046979394,15.9526193345401,-69.82942033495816
-7.305485904714287,-511.38401333,2.4705805713875537,-2.481875764020096,6.00009525,0.0,4,70,848.431947576509,1262.31268,mp-1209355,Sr2B11HO21,https://materialsproject.org/materials/mp-1209355,-25.72670612772629,-2.5500831127460475,-33.530858808250926,-33.57008749633855
-4.960058402,-49.60058402,2.8382978615574563,-3.4091978923484834,0.0,5.9458,225,10,178.22673651761414,304.63635780000004,mp-1111612,K2RbAlF6,https://materialsproject.org/materials/mp-1111612,-52.36995645501229,-69.39754556433603,-53.624081326093766,-58.33548799324261
-6.7627398625,-54.1019189,5.597187693346224,-2.0486634117037497,0.0,2.3646,8,8,130.56886756107406,440.10917,mp-1225594,LaPbNO5,https://materialsproject.org/materials/mp-1225594,-22.788638622245397,-53.06923348690908,-24.493338141203594,-44.95656689660439
-4.0470430524999985,-339.95161641,4.356090517100369,-0.5166286738229874,5.975e-06,1.3805999999999998,15,84,1830.845289957377,4802.854744,mp-683910,Ag7P3S11,https://materialsproject.org/materials/mp-683910,-3.172743055896701,-3.5343140644412867,-23.36729687191057,-30.417749177189087
-4.735143574583334,-113.64344579,4.764807766555644,-3.2690983342991666,0.0,4.3543,11,24,400.01878538731887,1147.8276448,mp-555271,Ba2Zn2ClF7,https://materialsproject.org/materials/mp-555271,-12.920596227213311,-22.09642818356885,-14.330559066912965,-19.249130950268334
-3.5540076455,-71.08015291,5.694609543619504,-0.2934714444999997,8.05e-06,1.1475000000000004,167,20,698.395084263578,2395.058,mp-1188957,Te6IrBr3,https://materialsproject.org/materials/mp-1188957,19.301465011363167,1.7077315132002493,13.798724610566607,-7.710357457538552
-7.803587246818182,-171.67891943,6.4408954130845695,-3.3952211417045466,2.5e-06,2.8711,63,22,335.3988630046075,1300.94442,mp-1190600,La3SbO7,https://materialsproject.org/materials/mp-1190600,-11.567967542198096,-62.37767046376861,-8.648911667716401,-66.18341739845184
-7.132748832608696,-328.1064463,5.486936966881234,-2.4003507623913043,6e-07,0.0,15,46,685.5394620339613,2265.2354,mp-543110,Nd2Tl(MoO4)4,https://materialsproject.org/materials/mp-543110,-52.19558836950997,-52.354577900319434,-25.06138925026302,-59.48617552444955
-6.484170232972972,-239.91429862,5.721777474728582,-2.5305958125506764,0.0006539,0.0,12,37,892.4903997746353,3075.2854,mp-1199201,La4(HoS2)11,https://materialsproject.org/materials/mp-1199201,8.631679046123095,-2.976366678689513,-5.162566928058675,-14.385485264042675
-3.30755294125,-26.46042353,5.8310283370407605,-0.29071362958333324,0.0,0.0,140,8,250.45568492614086,879.482,mp-20408,InGaTe2,https://materialsproject.org/materials/mp-20408,8.100821040658042,-31.28536287424507,4.304760293600512,-31.859661613672486
-2.22850665,-26.742079800000003,3.3194156909798145,-0.9179950692816092,1.000002,0.0,11,12,617.3670374181172,1234.11602,mp-38177,Rb2ZnI3,https://materialsproject.org/materials/mp-38177,-7.904833842616059,-8.42414704749705,-53.74489088061514,-17.90538452281015
-3.78397696609375,-242.17452583,4.106674440411272,-0.4275666777677123,1.9984013999999999,0.1994,33,64,2219.751012308995,5489.659999999999,mp-1220142,Rb2Sn4Se9O,https://materialsproject.org/materials/mp-1220142,-4.118532482468907,2.1951242290674395,-37.74003388616111,-35.30065888302279
-4.147470346428571,-348.3875091,3.6351671181297713,-0.4080484846301025,0.0,1.6302,185,84,2257.0592967478037,4941.038748,mp-565597,Cu3P4S4I3,https://materialsproject.org/materials/mp-565597,-2.2764710140390743,-0.6898084596672507,-17.443996434499045,-15.520785814394221
-7.8409419046428575,-658.63911999,5.047062680661114,-3.6960635312471437,0.000696825,4.109400000000001,1,84,1298.4327702663966,3946.4724528,mp-686674,Ba2La3Si3O12F,https://materialsproject.org/materials/mp-686674,-19.172663399040086,-34.065940409675065,-10.634143074385882,-33.917881535642984
-3.5157987060000004,-70.31597412,3.900723399546893,-1.6842824983500002,0.0001905,4.1987,14,20,615.8693699195718,1446.72061568,mp-1210441,Na3LuBr6,https://materialsproject.org/materials/mp-1210441,10.827590868175397,4.266123933237002,-11.377933991237011,-7.383215243709589
-5.923753784583332,-142.17009083,4.445743102394101,-3.99438439921,0.0,7.1314,62,24,382.475782753538,1023.9982512,mp-18040,KPrF4,https://materialsproject.org/materials/mp-18040,-13.011830381050967,-27.44674574323584,-38.07310808883971,-49.60415884511903
-4.798599488214286,-134.36078567,2.930236029754205,-1.6740764626785725,2.3899999999999998e-05,1.6421,91,28,741.5177323372209,1308.504,mp-866943,Ca2SnS4,https://materialsproject.org/materials/mp-866943,-5.061676763235543,2.7222714550249165,-38.03332902844828,-35.93045232423997
-3.312048998823529,-56.30483298,5.28683800870739,-0.3401138485294118,6.2e-06,0.6335999999999999,5,17,567.4804571351885,1806.749,mp-36641,Cd(Ga3Te5)2,https://materialsproject.org/materials/mp-36641,17.505122266920047,14.104226145843649,5.151336598362247,-14.682931076394976
-4.919300122,-49.19300122,5.701061633904531,-0.8621871597500004,0.0,0.4194,2,10,204.292968658745,701.3908,mp-643903,Ba2BiSbO6,https://materialsproject.org/materials/mp-643903,3.0007751775671268,-6.9544119418265415,-27.73600408605607,-35.82193423258439
-3.78109461,-37.8109461,4.740431943764723,-0.40815059448275903,0.0,0.5461999999999998,63,10,332.32100278224857,948.6950075999999,mp-1206689,Cs2NiAs2,https://materialsproject.org/materials/mp-1206689,-8.18505140216852,-4.581349400575768,-11.097055796403444,-51.093770592498885
-4.69849858,-93.9699716,5.008399891174833,-1.8082008126754998,0.0,1.3195,2,20,578.2317781296088,1744.0216127999995,mp-558946,BaSbSe2F,https://materialsproject.org/materials/mp-558946,9.929927300143328,-22.13767872529995,-17.23863479067257,-31.611716394771747
-7.059404415833334,-169.42570598,3.0319642391644503,-3.2223656476041675,0.0,4.2414000000000005,113,24,298.62430396874976,545.2556,mp-677780,Ca2MgSi2O7,https://materialsproject.org/materials/mp-677780,-17.308740244035768,32.43263417344341,0.4062481184539604,35.107524840974634
-2.901086272777777,-104.43910582,4.0589000662904136,-1.1575068274904214,5e-08,0.0,225,36,1418.7872199147025,3467.9796151999994,mp-28269,Cs2SbBr6,https://materialsproject.org/materials/mp-28269,0.8818075757638977,12.986818725863802,-29.31960098041943,-70.486086555577
-7.183846225,-28.7353849,4.192511257026798,-2.2516566557812503,7.000000000000001e-06,0.0,166,4,78.41912167757525,197.99176200000002,mp-1215915,YScS2,https://materialsproject.org/materials/mp-1215915,22.308646920681454,23.833005313351798,28.87593356771581,-42.41840167069075
-6.27663752,-25.10655008,6.681206053716843,-0.16582728500000066,2.5380553,0.0,194,4,88.74898592454784,357.083,mp-10256,VTe,https://materialsproject.org/materials/mp-10256,22.13606802149759,8.586552939425326,56.6064881867135,-23.659994687064096
-5.2194169775,-20.87766791,6.112508138018242,-0.3583229134635415,2.9999999,0.3380000000000001,160,4,86.33006689462782,317.7843,mp-3532,CrAgSe2,https://materialsproject.org/materials/mp-3532,22.156951453525668,25.286263258489285,22.483111347031073,-45.52640031889142
-7.371391984500001,-147.42783969,6.267402462265965,-2.1702915809375014,6.000000225,0.18550000000000025,62,20,451.98628729411683,1705.9399999999996,mp-1215831,YbGdS3,https://materialsproject.org/materials/mp-1215831,13.476902758384005,-6.6962507749664875,-1.5918051448220614,-13.134332544303124
-3.921888395357143,-109.81287507,3.660819872548789,-1.084972530642857,4.0,0.9694,176,28,932.8786742619383,2056.6218,mp-570000,K3Mo2Br9,https://materialsproject.org/materials/mp-570000,-0.1701385154960916,2.5840019108536514,-23.529154477382523,-72.70468696200592
-5.734550146666668,-51.61095132,4.383856363495909,-2.5325367032505564,8.000005999999999,1.9040000000000001,139,9,153.42921582063948,405.0562064,mp-549237,Sr2Fe2S2OF2,https://materialsproject.org/materials/mp-549237,20.712826867882796,-7.718077395295816,17.44540330654696,-40.87931733327002
-2.8321020968,-212.40765726,4.186744598628368,-0.8170002136000001,0.02378282,0.0,38,75,3348.848473271457,8443.50715,mp-685901,K4Pt2I9,https://materialsproject.org/materials/mp-685901,-4.834991739147777,5.280495488367597,-34.8577958250823,-30.775815232910794
-5.2479580025,-20.99183201,5.244775381852617,-2.1500484223329748,0.0,2.1624,166,4,115.33862089279287,364.2944519,mp-561751,CsErS2,https://materialsproject.org/materials/mp-561751,4.774075311161479,-3.8433838040054304,-3.2861117552998937,-6.136449248685049
-8.232650715,-197.58361716,4.548918196121254,-3.4623368091145825,0.0,4.284300000000001,144,24,282.32113814783884,773.3969099999999,mp-1222841,LaSiBO5,https://materialsproject.org/materials/mp-1222841,-20.235945332232752,-30.571285542033863,-17.925542193992364,-26.053744629410797
-2.451798781,-196.14390248,6.00770325279646,-0.04382147000000032,5.375625e-05,0.0,142,80,2154.058578518144,7793.2192,mp-1199496,Cd3As2,https://materialsproject.org/materials/mp-1199496,30.77962262729164,-5.022394920549959,14.3573309833119,13.306893406377627
-3.595598883,-35.95598883,4.28697641532604,-1.5229909414080458,0.0,2.755,225,10,347.85870307767044,898.0590158,mp-1113451,Cs2ScAgBr6,https://materialsproject.org/materials/mp-1113451,0.7159427509829009,13.72413466245051,-29.66123899785307,-71.17300357564345
-6.479273110147059,-440.59057149,5.610688828010411,-2.2380066828308833,4.998216225,1.1688999999999998,1,68,1512.6488579539093,5110.992179999999,mp-1173568,Sm6MnS10,https://materialsproject.org/materials/mp-1173568,18.192694221804928,-4.292457863655441,8.957866351330043,-8.969625818283024
-3.995421156666666,-119.8626347,3.8433570948733453,-1.495411266683908,3.505e-05,1.0711000000000002,185,30,776.3573724810582,1796.8976,mp-769294,Rb8SnO6,https://materialsproject.org/materials/mp-769294,5.363899887197549,-32.676698097797214,3.2905270478710333,-28.99921610727447
-3.182816953928572,-178.23774942,4.675409802541359,-0.3372712006937602,0.0,0.7399999999999998,14,56,2176.0256907622615,6126.8128,mp-21760,Rb2In2Sb3,https://materialsproject.org/materials/mp-21760,13.399478839008024,1.8159147527359896,-18.749630792345812,-12.206169554981715
-8.175147088181818,-359.70647188,4.695645437701941,-3.629428581022728,7.5e-08,5.1722,14,44,636.5155583100168,1799.9283999999998,mp-5913,Pr2Si2O7,https://materialsproject.org/materials/mp-5913,-25.10514245471718,-36.881813229702395,-30.96051324912397,-45.63744130234255
-3.4107216571428567,-23.8750516,3.4564674614355866,-1.9379882253448275,2.9999999999999997e-05,4.4815000000000005,139,7,300.5019789886717,625.5049038,mp-1025267,Cs2CaBr4,https://materialsproject.org/materials/mp-1025267,-6.3172427495382095,-24.817091761958498,-29.32433100378509,-62.012211279909295
-6.813036689583334,-327.0257611,4.003885702431391,-2.8612302315852496,3.9975e-05,4.252599999999998,57,48,729.491808808688,1758.9479999999999,mp-1195542,Rb2LiNd(BO3)2,https://materialsproject.org/materials/mp-1195542,-22.497873887240697,-24.80916655538798,-21.203607723977047,-30.642496650220362
-8.478647158035715,-474.80424085,4.8555589478981895,-2.245957700357143,13.999763,1.2497000000000005,29,56,1277.8420363790622,3736.52,mp-1232233,Gd2MgS4,https://materialsproject.org/materials/mp-1232233,12.415753266063314,5.161050024548069,-10.570237529368844,-8.342777319783451
-7.6393852266666675,-229.1815568,4.656264834512938,-3.3060366599166677,0.00206775,3.5684000000000005,2,30,485.21454850482047,1360.5747199999998,mp-1187317,Sr4Nb2O9,https://materialsproject.org/materials/mp-1187317,-17.52090406983007,-79.56445752625764,12.6713720681064,-72.18165056325634
-3.512567428333333,-63.22621371,4.579943393135164,-0.6408551081898151,0.0,0.8444,13,18,528.2486518455621,1456.9660000000001,mp-570887,K2Ag2SnSe4,https://materialsproject.org/materials/mp-570887,8.210475585551862,1.9845977021044519,0.9746756879223444,-21.379673890942364
-6.366778745555554,-114.60201742,5.798453731797529,-2.8636006187500005,0.0,2.7573000000000003,140,18,323.386294020172,1129.236,mp-754370,Ba3GeO5,https://materialsproject.org/materials/mp-754370,-8.950479255082277,-32.154442587626,-2.2049933733156686,-33.84659262756264
-3.361683458611111,-121.02060451,3.230932816114838,-0.9489541457430556,0.0,1.5606,62,36,1414.8502081302431,2752.8928,mp-569427,K4Sn(TeSe)2,https://materialsproject.org/materials/mp-569427,-3.9815201077017317,-7.418862430739661,-33.01706999273848,-29.62304761652254
-4.088007607361111,-294.33654773,4.3142929971713935,-0.5112747569717269,0.0,1.7782000000000004,14,72,1583.7795223231667,4114.861943999999,mp-558469,Ag2PS3,https://materialsproject.org/materials/mp-558469,-2.986457783048563,-3.696440727095908,-22.585698070639072,-31.365487883131685
-4.703764364157304,-418.63502841,4.02599959682766,-0.9599994566541435,0.0060985,1.3747,1,89,2696.1369157704567,6536.8208,mp-674338,K16Zr12Se61,https://materialsproject.org/materials/mp-674338,7.604723845937861,1.5620414086149108,0.010633210740071996,-22.388944709143264
-4.891624691666667,-176.0984889,5.903702119759164,-0.3805326516666672,0.0,0.6360999999999999,14,36,1213.1966156806736,4313.26892,mp-28745,Nb2Te6I,https://materialsproject.org/materials/mp-28745,15.390228079508054,0.7321284832845611,0.3404684979664221,-16.758170435750607
-7.683585595869566,-353.44493741,3.5113749815796047,-3.3322979159057984,0.0,4.8767,121,46,636.2316912227964,1345.3752,mp-1019518,Ba2CaSi4(BO7)2,https://materialsproject.org/materials/mp-1019518,-27.031032780390724,-25.725294553248922,-21.2567449219547,-30.678721075570888
-2.8549682047500005,-114.19872819,4.281339969843808,-1.0069631146120688,0.0,2.5112,62,40,1800.1601832109518,4641.3228228,mp-23481,Cs3Cu2I5,https://materialsproject.org/materials/mp-23481,-6.748395473314138,-13.102551005147436,-40.24789705053915,-14.489791559807866
-3.976706068888889,-35.79035462,5.186927041940256,-0.8027827650830146,0.0,1.6401,21,9,346.7656711621657,1083.1713037999998,mp-1078823,Cs2Zr(AgTe2)2,https://materialsproject.org/materials/mp-1078823,13.717920893411513,2.166644117495952,-13.49677270495778,-9.778717779929089
-6.4357815485000005,-128.71563097,5.929378711409871,-2.5210177926875006,2.645e-05,1.0598999999999998,11,20,469.42341926036653,1676.1962,mp-1106294,La(TmS2)3,https://materialsproject.org/materials/mp-1106294,8.626987584210646,-3.030211279548757,-5.1032349892112245,-14.213405335981125
-7.924340199642858,-665.64457677,4.2376830214898025,-3.3806251021031746,0.0,4.4422,33,84,1059.4208637372392,2703.634,mp-561157,Sr3Y2(BO3)4,https://materialsproject.org/materials/mp-561157,-17.801924192928354,-32.688438100791885,-13.544026847153726,-33.60242463435607
-2.931300327,-29.31300327,3.377441636814928,-1.3364846678689657,1.9e-06,2.0358,225,10,373.25575344691435,759.1809,mp-1114656,KRb2GaBr6,https://materialsproject.org/materials/mp-1114656,2.164359115325696,6.972317391002281,-34.685100131749905,-69.78085041968669
-6.673075839642857,-186.84612351,6.504596425213247,-0.3826219593719214,0.0,0.0,148,28,817.809647563244,3203.4909038,mp-18193,CsTe7Mo6,https://materialsproject.org/materials/mp-18193,20.63576238662144,4.999580137189841,14.347027137399794,-9.364099463562637
-4.242237670555556,-152.72055614,5.158820596094797,-0.6513495997222228,1.625e-06,3.2568,60,36,596.1338391753974,1852.0176,mp-769016,Pb(BrO3)2,https://materialsproject.org/materials/mp-769016,-51.97586182428629,-51.50926301738644,-16.265268324591492,-64.14893608042422
-6.01972025967742,-186.61132805,4.348269155695429,-1.8347945770679723,2.0000003,0.0,146,31,434.2187339735077,1137.0403720000002,mp-1229161,Ag6P6O19,https://materialsproject.org/materials/mp-1229161,-24.38406281959208,-32.521558628098305,-2.2930196308234647,-24.461492143065925
-6.933248992857143,-97.0654859,3.681852739791372,-1.4127408766071434,8.96495035,0.0,12,14,294.99599656346373,654.08388,mvc-16792,Y(MnS2)2,https://materialsproject.org/materials/mvc-16792,8.134094371167247,27.86066908859704,-19.619345854048692,-81.93835902375585
-4.767927012159091,-419.57757707,3.3311845477983555,-0.20428341037818207,0.0,0.4112,14,88,1292.2490798239558,2592.3631200000004,mp-570909,CuTe4H12C4N,https://materialsproject.org/materials/mp-570909,-2.569430354565688,7.358392174838053,-15.064997118305488,-5.242005558482174
-2.6105163116666663,-93.97858722,4.890189035721579,-0.6830798089655173,2.475e-06,1.4415,15,36,1383.4826530124685,4074.2744,mp-29901,Rb2Cd3Te4,https://materialsproject.org/materials/mp-29901,13.45262463865909,1.9054971138360517,-13.27493734706591,-7.3514789967574385
-6.4102193220000006,-32.05109661,5.513173036548313,-0.912443459095239,1.9e-06,0.0,166,5,115.02863129379864,381.907762,mp-12527,Ti2Te2P,https://materialsproject.org/materials/mp-12527,6.209012044097271,0.03147057241346701,13.182241968037445,-26.92491594870029
-5.124144417,-102.48288834,7.652769119295738,-2.2300525532260003,0.0,2.8493,137,20,406.5405213670816,1873.5848255999997,mp-27355,Pb2OF2,https://materialsproject.org/materials/mp-27355,-24.696974460917968,-60.484744979626186,-16.781803326140974,-65.36696354964846
-5.54605692,-399.31609824,3.4866550692710288,-3.846739267959998,0.0,6.9766,33,72,958.5376729664481,2012.65381664,mp-14722,NaSrAlF6,https://materialsproject.org/materials/mp-14722,-14.988337057199292,-25.97218875637937,-14.78348066690965,-16.301823093035267
-7.0380422921739125,-161.87497272,5.700804206315991,-3.293432814456521,1e-07,2.9549000000000003,6,23,340.8585780148555,1170.20315,mp-753769,Sr3Li3La5O12,https://materialsproject.org/materials/mp-753769,12.695946154304824,-61.044950767178676,7.269273863179696,-45.84470050592388
-4.148804049615385,-107.86890529,4.921751229988896,-0.871846680576923,3.0,1.6006,2,26,842.0466449610144,2495.7824,mp-1192987,BiW2(Br4O)2,https://materialsproject.org/materials/mp-1192987,-2.8902184919015816,2.313764576041301,-37.160278531616534,-32.010722956438066
-6.8567035325,-109.70725652,3.5680503400317884,-3.134426575625,0.0,4.1295,190,16,166.28811581633502,357.308292,mp-27791,SrBe3O4,https://materialsproject.org/materials/mp-27791,34.934965238492104,39.590866547232096,13.695728719065494,12.750687121162288
-1.9927798180555556,-143.4801469,7.159145325175137,-0.28194763694444425,0.003868725,0.7238,205,72,2211.684922790405,9535.3216,mp-29078,Hg4As2Br3,https://materialsproject.org/materials/mp-29078,2.7590909418472185,-6.4958790043667705,-24.897072931262215,-36.67265622860143