energy_per_atom,energy,density,formation_energy_per_atom,total_magnetization,band_gap,sgr,num_sites,cell_volume,weight,mp_id,formula,URL,tsne_cry_0,tsne_cry_1,tsne_xrd_0,tsne_xrd_1
-6.513854010999999,-130.27708022,5.6118828824605576,-2.5447108189375003,0.0,2.2496,62,20,485.35085797832636,1640.26988,mp-1106374,LaLuS3,https://materialsproject.org/materials/mp-1106374,9.027431205460633,-4.494230502245831,-6.955759612501295,-12.129041237905588
-7.81422280892857,-437.5964773,5.576201441742536,-3.3555569775637752,0.0,4.5706000000000016,14,56,798.4728133943298,2681.325248,mp-14328,Pr3GePO9,https://materialsproject.org/materials/mp-14328,-12.011580550951734,-59.168973344799916,-15.821016570345789,-52.673972688914354
-6.396972571081082,-236.68798513,6.008901381698018,-2.4885429878209457,0.00045599999999999997,0.0,12,37,864.2287001256275,3127.33691,mp-1203583,Pr4(TmS2)11,https://materialsproject.org/materials/mp-1203583,9.123363964233599,-3.084750614737424,-5.477388715945248,-14.89033718648034
-3.879709953571429,-54.31593935,4.166459259704017,-0.9319645761309526,6.75e-05,0.07669999999999977,160,14,337.41574536703115,846.61,mp-616900,Zn(InS2)2,https://materialsproject.org/materials/mp-616900,-1.7882012183211986,9.453608825064988,-14.275679060586555,-70.96400398523011
-6.23168557725,-498.53484618,3.081910788342316,-2.473018517509125,0.9735229,0.12700000000000022,9,80,1153.1590803841416,2140.22876,mp-710070,K5Ce2H2S6O25,https://materialsproject.org/materials/mp-710070,-34.28249529437972,-24.89726683200909,-31.60967060128941,-32.31269437247941
-3.9937637614285713,-111.82538532,3.93629882477736,-1.2839774207881771,2.00000005,0.0,194,28,979.8395328776401,2322.70432,mp-29413,Rb3Nb2Br9,https://materialsproject.org/materials/mp-29413,-1.408095321042988,14.294320921588174,-24.29171841594441,-72.66613002120354
-6.4097354235,-128.19470847,6.276520045340827,-2.4800984259375,0.0,0.5791000000000004,62,20,438.1657633385561,1656.1828,mp-9323,Tb2S3,https://materialsproject.org/materials/mp-9323,13.854439570534375,-5.637576014272821,-1.0909512713375693,-13.511478794595634
-7.413401774583334,-177.92164259,4.596408387945032,-2.423820671916667,6.00067535,0.0,2,24,369.17157664892267,1021.875,mp-566325,KEu(MoO4)2,https://materialsproject.org/materials/mp-566325,-51.817514347022616,-52.600161097725106,-24.99965153743275,-59.41981817618889
-5.736227027000001,-229.44908108,6.696987720740372,-2.024629425770833,2.3e-06,1.1627999999999998,18,40,825.2961108207636,3328.4359999999997,mp-1197390,Lu3InS6,https://materialsproject.org/materials/mp-1197390,13.14051362538089,-3.9832398409567262,-4.528498101602433,-17.180950357985832
-3.890567041428572,-54.46793858,4.163813030264845,-0.9428216639880956,3.39e-05,0.13070000000000048,186,14,337.6301833045996,846.61,mp-560262,Zn(InS2)2,https://materialsproject.org/materials/mp-560262,-1.8018672476682156,9.450478648334707,-14.30887368052516,-70.94018490960805
-2.494517811666667,-29.93421374,4.313896186937259,-0.7399370944583333,7e-07,0.6926,36,12,381.3863415375008,990.7994,mp-1102516,KHgBr3O,https://materialsproject.org/materials/mp-1102516,-2.747922427636181,2.0581150158032586,-7.057711561320748,-15.639658271716582
-4.895899803902441,-401.46378392,3.1661573503836458,-0.5940827478658541,4.22128905,0.0,227,82,2345.725219777125,4472.604960000001,mp-868020,Nb6Cd(Br8O9)2,https://materialsproject.org/materials/mp-868020,-3.713138511597634,3.7597597403597343,-35.859253867102645,-31.694816118266463
-4.165395709807692,-216.60057691,5.5559628845965445,-0.24298157711538476,0.0,0.05489999999999995,40,52,1331.1479148283506,4453.86,mp-1228889,Ba2CdGe10,https://materialsproject.org/materials/mp-1228889,18.926682401070245,23.72296028880834,16.794509601180962,-46.10304818240336
-3.670051279166667,-88.0812307,4.8085387842547425,-0.2283199705000006,0.0,0.2906000000000004,62,24,823.0782742691371,2383.4452,mp-29374,KGaSb4,https://materialsproject.org/materials/mp-29374,11.719916124760331,3.916923558040161,-12.0699705989097,-8.027143586954129
-3.8913563228571433,-27.23949426,4.162861703512745,-0.943610945416667,0.0,0.11450000000000048,156,7,168.8536704772248,423.305,mp-22253,Zn(InS2)2,https://materialsproject.org/materials/mp-22253,-1.8036860084763335,9.452397441610193,-14.566224230777705,-70.99817410196616
-2.7126055910000004,-54.25211182,2.572206524427856,-0.1868536964320004,2.0000009,0.34830000000000005,62,20,601.0944988771399,931.1068,mp-1105591,CdNCl3,https://materialsproject.org/materials/mp-1105591,-29.513997800231703,-2.8007223682888003,-74.16046113676538,-10.758607824398437
-3.428925446111111,-61.72065803,5.051947193606415,-0.6135584386631948,6.5000000000000004e-06,1.1916000000000002,4,18,499.0004842528524,1518.136,mp-1227014,Cd2Ga2Se5,https://materialsproject.org/materials/mp-1227014,14.196113247269974,14.848146127178794,5.175411548294816,-17.13801389296632
-4.555992186999999,-91.11984374,4.328971600006205,-1.1561072416562497,5.39e-05,0.0,12,20,613.8786819169675,1600.3618800000002,mp-1232143,LaMgSe3,https://materialsproject.org/materials/mp-1232143,12.096390773093741,1.9452833775852127,-12.773400734612062,-6.952599878655668
-4.206721099,-168.26884396,5.502412708660233,-0.8553686530208331,0.0,1.4932,12,40,957.1442736473404,3171.6224,mp-504646,In5(BiS4)3,https://materialsproject.org/materials/mp-504646,7.511259330367662,-5.312688188540927,-6.704525532299195,-18.26459228343061
-5.422978649666666,-650.75743796,4.659583089948651,-1.6988532723333332,0.0022086625,0.6941999999999999,88,120,3865.574007468297,10847.058,mp-1201999,Y5IrBr9,https://materialsproject.org/materials/mp-1201999,20.30239153516187,0.4986064536532146,12.835580327992206,2.7897518394813674
-6.230988754545454,-137.0817526,6.289101389287474,-0.13662420181818194,18.00000015,0.0,2,22,541.5770405017,2051.161,mp-1226086,Cr5Te6,https://materialsproject.org/materials/mp-1226086,21.810228365710454,8.653431335560729,26.910579278747644,-39.89069214408667
-4.686525912,-23.43262956,4.0342215436161055,-0.3538053779999991,4.8716795,0.0,156,5,104.29919382651151,253.39124500000003,mp-1222133,Mg2MnAs2,https://materialsproject.org/materials/mp-1222133,16.467200218186502,10.782968415777876,4.7748956362759385,-10.392769040251805
-3.5825819275,-114.64262168,5.687601915150172,-0.4727046157552084,2.625e-06,1.5481000000000005,62,32,1029.2802870502735,3525.44348,mp-1201600,In2BiSe4I,https://materialsproject.org/materials/mp-1201600,11.672967948233648,1.6535540870384888,-10.592598056199078,-9.374976714462193
-6.56094937,-39.36569622,6.997342617808147,-3.3901382500841666,0.0,1.2587000000000002,129,6,99.6648418392725,419.9775064,mp-10930,TbSF,https://materialsproject.org/materials/mp-10930,14.827455965625354,-4.585416660430324,4.226360237470967,-10.364883343940443
-7.25306022392857,-203.08568627,6.132320999525862,-2.498327681964286,7.003945900000001,0.29440000000000044,62,28,665.8510476582071,2458.968,mp-541052,Eu(ErS2)2,https://materialsproject.org/materials/mp-541052,9.028757484174816,-3.9728561207695496,-6.806058526988095,-12.908888691325426
-6.498552803513514,-240.44645373,5.982712674370072,-2.465729514847974,4.383547599999999,0.0,12,37,867.1328625873099,3124.17031,mp-1204968,Ce4(TmS2)11,https://materialsproject.org/materials/mp-1204968,9.095203205015444,-3.053009176710656,-5.426173913115322,-14.768018135012627
-2.8772273619444437,-103.58018503,3.814040356778181,-1.1067273797988504,3.25e-07,0.0,141,36,1344.6472710448575,3088.4784,mp-540811,Rb2SbBr6,https://materialsproject.org/materials/mp-540811,-0.20083704549309875,14.024813545020141,-27.95118797737848,-70.50277680487491
-3.69798977125,-177.50350902,5.6055783663408185,-0.10871648312624,0.0,0.8682000000000003,19,48,1146.0303160619142,3868.721296,mp-13956,Ag2PSe3,https://materialsproject.org/materials/mp-13956,16.40151746773253,1.861449247900956,-1.7953617725575144,-18.2930846524288
-3.79414914,-22.76489484,5.922081503499883,-0.33002101357638897,0.0,0.2627000000000006,63,6,114.11026856968502,406.9584,mp-8911,CuAgS,https://materialsproject.org/materials/mp-8911,19.80047258759864,8.160542842279423,23.20715825582008,-40.19207466101717
-4.939904412857143,-138.31732356,4.568799919798159,-0.5724476337500012,3.96405055,0.0,62,28,621.6844855936439,1710.5,mp-20767,Fe(SbS2)2,https://materialsproject.org/materials/mp-20767,-0.35114212008304946,-3.181472537495017,-18.618287342426843,-33.73519693150925
-5.374022809166667,-64.48827371,3.008484413365252,-1.771092706031251,1.05e-06,1.7712,12,12,257.6495882352253,466.79707712,mp-1210267,Na2ZrS3,https://materialsproject.org/materials/mp-1210267,14.765700662538993,10.114834168534914,28.27208578877252,-43.501144030638244
-3.5270133933333336,-42.32416072,4.829304144167285,-0.4450599228645835,2.0775e-05,1.4198,62,12,385.96625406065414,1122.496,mp-1209072,SbSeBr,https://materialsproject.org/materials/mp-1209072,17.254481226101575,2.1573975996426937,-0.8320757278952581,-16.57810868125937
-5.7793025778125,-369.87536498,4.306752031839527,-1.3406372349999989,0.94350575,0.0,58,64,1876.614204165628,4867.161711999999,mp-1200815,Sc13Os3Br16,https://materialsproject.org/materials/mp-1200815,11.502609713194248,-0.04454225127842912,-2.1379940330480784,-17.793441526582154
-8.5352158655,-170.70431731,5.59524223653605,-3.8881355855,0.0,3.9038,36,20,331.00646768108527,1115.337444,mp-1178124,La3ScO6,https://materialsproject.org/materials/mp-1178124,-11.013446918371155,-60.040241165486385,-6.864654270440808,-61.823382575132186
-3.5864676303571428,-200.8421873,5.626061311165649,-0.35539134650297605,0.0,0.5009999999999999,198,56,1207.0375736554595,4089.5559999999996,mp-15077,Ag7AsS6,https://materialsproject.org/materials/mp-15077,15.551253799199724,-14.661146561734135,4.150234848324957,-21.89532205706398
-4.469672022857143,-62.57540832,4.170190837226552,-0.9586107572023812,4.996883599999999,0.0,8,14,332.9443618494496,836.139045,mp-1221721,MnZn(InS2)4,https://materialsproject.org/materials/mp-1221721,-1.8781911389765529,9.361666407286194,-14.17590583406159,-70.94472311919736
-5.000961417901236,-405.07787485,4.838616041011672,-3.096393246363826,3.999999666666667,0.02070000000000005,189,81,1337.6429034442854,3897.7345632,mp-559141,Ba5Cu4ClF17,https://materialsproject.org/materials/mp-559141,-13.338149145956972,-21.80194921458937,-14.18894071217792,-18.421636785395574
-3.6938285540909086,-81.26422819,3.0182889689638146,-1.109696558333333,2.00000005,0.0,15,22,815.4040404398711,1482.1241544000002,mp-541826,Ti(AlBr4)2,https://materialsproject.org/materials/mp-541826,-7.153417757246662,-5.714749143702665,-32.069379861725196,-47.149988559577544
-4.462782734,-44.62782734,5.2894101131778495,-0.8920628564760001,4.95e-06,0.7075,194,10,343.91602105277155,1095.4954,mp-12814,Ba3SbN,https://materialsproject.org/materials/mp-12814,-3.5050744133243725,-27.97608922833917,-4.441071121731247,-86.93753357998335
-6.676272987999999,-33.38136494,5.662314684345268,-0.6268695900985222,1e-07,0.0,139,5,116.42276557152435,396.9929759,mp-1207015,Cs(PRu)2,https://materialsproject.org/materials/mp-1207015,15.254778469178842,22.116108793428264,24.27184728098433,-40.43316430788619
-6.415383995000001,-64.15383995,5.8579415758258735,-2.474822818437501,2.5e-06,0.8991000000000002,63,10,233.61712716558347,824.1392999999998,mp-1078537,PrLuS3,https://materialsproject.org/materials/mp-1078537,9.015810488611162,-4.509860808472533,-6.853954141555153,-12.729251255667398
-7.733209876666668,-46.39925926,6.585656181801837,-3.1698545583333337,0.0,3.4051,12,6,88.8764067731096,352.4816,mp-31049,NdO2,https://materialsproject.org/materials/mp-31049,-9.336660509183227,-61.683318518883574,-8.309684439729878,-67.68466153221136
-3.0277559846875,-193.77638302,3.345896020678349,-0.1879998313696123,2e-07,1.3385000000000002,205,64,2386.9315411307048,4809.53747712,mp-14407,Rb7NaGe8,https://materialsproject.org/materials/mp-14407,-6.066401737115845,-4.856962244059654,-23.70203870023025,-32.65085283975711
-2.7725449455555555,-24.95290451,4.30463025472718,-0.9097244467432948,1.1e-06,0.5428,139,9,328.19411135041116,850.7805400000001,mp-567948,Rb2Pd(IBr2)2,https://materialsproject.org/materials/mp-567948,-1.5177024825947023,14.111793257155016,-27.886179363377515,-45.844786245437994
-6.041678368214287,-169.16699431,5.284492258745678,-2.513413929107144,0.0,1.8213,62,28,685.9494491148599,2182.96256,mp-1194314,Sr(HoS2)2,https://materialsproject.org/materials/mp-1194314,9.005737293125312,-1.9973597157018148,-7.581084229171567,-13.362424990366216
-3.678211323,-36.78211323,3.43605097000831,-1.7304021030189651,0.0,3.0969,225,10,347.13511895335364,718.3052812799998,mp-1114662,Rb2NaScBr6,https://materialsproject.org/materials/mp-1114662,-0.5160377658125616,12.759971945976071,-27.85358160274616,-69.60068148362917
-4.243829537,-42.43829537,5.344518668188505,-0.8351577611041663,5.95e-06,1.3794000000000004,11,10,260.9834413689946,839.9868,mp-1078776,InBiS3,https://materialsproject.org/materials/mp-1078776,12.630864316074069,6.355915837099503,-5.801034131846775,-19.666084134440247
-6.84538209,-164.28917016,3.755280412309048,-2.4764790925000004,3.75e-07,2.8468,14,24,360.14194500160033,814.4548000000002,mp-510607,SrCrO4,https://materialsproject.org/materials/mp-510607,-23.049539650826286,-33.186985447864224,-20.000648048431266,-13.822587542179232
-3.709651590833333,-178.06327636,4.3513870176830265,-0.7502738914635417,0.0,0.7267000000000001,15,48,1465.321659073609,3839.8264,mp-21713,K2In3CuSe6,https://materialsproject.org/materials/mp-21713,15.148622845130985,13.819105007963412,-11.135731777342944,-14.719231324863035
-5.4424128425,-43.53930274,7.503944079704376,-0.31809741749999976,5e-08,0.0,11,8,182.1881508279696,823.30476,mp-31510,NbCuTe2,https://materialsproject.org/materials/mp-31510,20.978449123676423,3.2802958533436057,16.272404473661275,-10.963993409777578
-3.668519737,-36.68519737,4.661561651894213,-0.30991434958482106,0.0,1.2072,148,10,270.9154270568202,760.529524,mp-1079559,CdPSe3,https://materialsproject.org/materials/mp-1079559,17.64757733542549,2.134163637930354,-0.3431991212203097,-16.007102898374807
-3.430811536,-17.15405768,3.4115012901593795,-0.6090738620000004,0.0,0.8711000000000002,164,5,108.42695227673413,222.7582,mp-7891,Mg3As2,https://materialsproject.org/materials/mp-7891,16.531819846222287,10.53427009436339,4.758946680118396,-10.489685761147426
-3.6682049209090914,-80.70050826,5.877378185709977,-0.31247381968363697,0.0,0.35100000000000003,15,22,673.9913789419629,2385.552,mp-1191663,Te8RuCl2,https://materialsproject.org/materials/mp-1191663,17.14474478560647,1.9628511757441665,-0.8067791298660915,-17.07691744323332
-3.941380958636364,-260.13114327,3.7117813711150625,-0.5302748518526786,0.00838835,1.0581,2,66,1991.7156470783661,4452.056144,mp-1199321,K5In3P6Se19,https://materialsproject.org/materials/mp-1199321,-0.44533767970827615,-0.09345263846642576,-29.199413198515533,-42.740852688424724
-6.383269653666668,-191.49808961,5.9805179564773345,-2.473393818104167,0.0,1.4612999999999996,11,30,709.7867060152521,2556.33384,mp-878,Ho2S3,https://materialsproject.org/materials/mp-878,8.729868830135214,-3.048238858353362,-6.409427351029643,-14.472402752261212
-3.4404706613333333,-51.60705992,2.772477999201072,-0.4878267941,4.0000001,0.6990000000000001,5,15,448.60360994564536,748.9999385599998,mp-1221809,Na2Te(BrO)6,https://materialsproject.org/materials/mp-1221809,-1.6970708640056003,4.6489416716831435,-33.66907705162472,-31.47072386240049
-6.41967159375,-51.35737275,2.933616139705888,-2.224166559531251,0.000134575,0.0,64,8,387.10332450054176,683.88188,mp-557579,LaS,https://materialsproject.org/materials/mp-557579,18.535243365372068,7.675859502178434,6.484710069123701,-10.224183502042123
-3.2852588153030307,-216.82708181,3.96598363841802,-0.2998402113375133,2.6666666666666667e-07,1.0848,147,66,2992.3519284231156,7146.8472,mp-505490,Rb4SnSb6,https://materialsproject.org/materials/mp-505490,13.13905757883924,1.5179313870400508,-20.276225185212482,-15.322296872790425
-4.225137474375,-67.60219959,5.8129463552258445,-0.3033419320833333,0.0,0.4183000000000003,12,16,506.2545487950274,1772.214,mp-574169,TiGeTe6,https://materialsproject.org/materials/mp-574169,14.994432528847804,0.6625434465704585,-1.1679220711708478,-17.83778010479727
-3.7429710257142856,-26.20079718,3.9135986104400313,-1.0584231271428568,3.9999995000000004,0.3767999999999998,65,7,165.19815029728545,389.343,mp-22967,Li2FeBr4,https://materialsproject.org/materials/mp-22967,20.081730998030494,11.194219626891329,-27.59348011924652,-70.55657377286593
-6.309306061428572,-88.33028486,3.587521190816183,-2.2526235751785717,0.0,1.5081000000000002,36,14,305.8398147783804,660.7534,mp-1216083,Y2MgS4,https://materialsproject.org/materials/mp-1216083,17.22721584281118,5.655489451849152,-2.613637480380143,-16.66849246061207
-5.731472638214287,-160.48123387,4.735628546847937,-2.200481426250001,0.000470725,1.9669999999999999,62,28,659.801441055897,1881.6628,mp-1232098,Tb2MgS4,https://materialsproject.org/materials/mp-1232098,12.35612400935974,5.693271468028858,-7.378232523980187,-16.581940236032278
-3.7905212025,-15.16208481,5.675272010691615,-0.6631789570312505,0.0,1.21,12,4,83.92011810309819,286.8162,mp-634855,InAgS2,https://materialsproject.org/materials/mp-634855,18.49083338221298,-37.908181510301006,7.738798104842829,-20.079453524561536
-4.112439401666667,-24.67463641,2.3493547164113235,-1.2680487243750005,2.5e-07,1.0004999999999995,36,6,125.0128547865393,176.87,mp-1185953,MgS2,https://materialsproject.org/materials/mp-1185953,-3.123089508789669,9.951037211372775,-14.781789914163909,-68.40243346693981
-4.004009694,-80.08019388,5.341824391438252,-0.25937155915625,0.0,0.7671999999999999,62,20,597.3412050718637,1921.6,mp-2160,Sb2Se3,https://materialsproject.org/materials/mp-2160,16.041849484171983,1.84435160892792,-2.2157650362210792,-18.537825619895813
-4.11330151625,-32.90641213,5.25665938578158,-0.6525746735492999,1e-07,0.0,123,8,152.66591211437822,483.28445189999997,mp-7785,CsCu4S3,https://materialsproject.org/materials/mp-7785,15.368014385638261,22.645969922340107,24.466927507397862,-41.59246959376063
-3.981109182857143,-27.86776428,3.8439581537554672,-1.1966443714285708,4.999999900000001,1.5098,44,7,167.7992297172986,388.43604500000004,mp-675475,Li2MnBr4,https://materialsproject.org/materials/mp-675475,20.468742337103887,11.006787628500204,-28.00441977721621,-70.6767199294983
-5.39037038357143,-75.46518537,4.614001850491712,-1.405242014910714,0.0014276,0.13960000000000014,227,14,339.1333457255509,942.3216480000001,mp-1001016,Sc2ZnSe4,https://materialsproject.org/materials/mp-1001016,17.820919263270714,11.103540123720125,-21.220111841595074,-73.45369592606279
-5.368899385,-21.47559754,4.363767677836663,-2.2172537377812502,0.0,2.385,166,4,102.92819293644442,270.4873,mp-4326,KErS2,https://materialsproject.org/materials/mp-4326,14.390506879580851,5.6527108350613,-4.415525576813885,-4.2358411153398245
-3.75427584,-52.55986176,4.914573214688468,-0.8541035474925595,0.0,0.6742999999999997,44,14,349.50506383717425,1034.404,mp-1226840,CdIn2SeS3,https://materialsproject.org/materials/mp-1226840,10.929661165436327,12.691858258355088,-20.926401874831818,-74.96840005783727
-3.7856236998,-378.56236998,4.982356244624771,0.05363149770000007,0.0,0.007699999999999819,1,100,2410.385703393966,7232.23,mp-1244899,GaAs,https://materialsproject.org/materials/mp-1244899,33.33770431886697,20.794684442791592,54.238297881181936,-2.242675852292732
-2.762125883125,-44.19401413,4.587719418899426,-0.8014771282112068,8.56e-05,0.0,63,16,724.2984225619009,2001.0839,mp-1173429,Rb2PtI5,https://materialsproject.org/materials/mp-1173429,-1.6247985933600009,5.0550949279276916,-34.21942116804132,-30.543979014988576
-3.128334314166666,-37.54001177,4.276752452226133,-0.7779740892241378,0.0,1.6366000000000005,63,12,351.20806685930773,904.5436,mp-567644,RbCu2Br3,https://materialsproject.org/materials/mp-567644,-5.5525296389174335,-1.466635107725286,-29.36977506094407,-38.39508469183587