energy_per_atom,energy,density,formation_energy_per_atom,total_magnetization,band_gap,sgr,num_sites,cell_volume,weight,mp_id,formula,URL,tsne_cry_0,tsne_cry_1,tsne_xrd_0,tsne_xrd_1
-2.9303540696428567,-82.04991395,3.680935408090804,-1.2725210346428573,0.0,3.7769999999999997,62,28,719.817734778289,1595.628,mp-28829,Li2ZnBr4,https://materialsproject.org/materials/mp-28829,-6.578138921714902,-3.0646248374579104,-16.349342868928982,-70.73519982395544
-6.373522687666666,-191.20568063,6.122584252711213,-2.467907088104167,0.0,1.4611,11,30,700.8959504824849,2584.278,mp-2234,Er2S3,https://materialsproject.org/materials/mp-2234,8.946856342340832,-3.0927708220979984,-6.4239765217616105,-14.541259739353688
-3.9509172175,-268.66237079,3.7414400688696174,-0.4892253072078085,0.001797625,1.5609,14,68,2113.2281289924795,4761.415544,mp-1199715,K2In2P3Se10,https://materialsproject.org/materials/mp-1199715,-0.4128182759379588,-0.07409757680948363,-30.951577375322987,-38.81328731169636
-2.995421922,-59.90843844,4.479304936535406,-0.3291365273375,5.4825e-05,0.0,62,20,529.1813894023143,1427.46707712,mp-1094117,NaCdCuSe2,https://materialsproject.org/materials/mp-1094117,-5.4012162493214735,-1.6651711694145277,-30.17993697301445,-37.073720227744964
-7.0364337875,-56.2914703,6.0649643662105825,-1.8467457743025009,4.79277785,0.0,129,8,181.5804851890148,663.2058300000001,mp-18745,LaMnSbO,https://materialsproject.org/materials/mp-18745,18.98990724331353,-38.41451905091811,20.15783569705621,-40.43265055128805
-5.48859122125,-131.72618931,4.730418144391166,-2.239259226573276,1.0001294,0.0,70,24,505.26677151676097,1439.3658,mp-770322,Rb2PrO3,https://materialsproject.org/materials/mp-770322,3.4612196189556657,-59.27736977296649,-26.543127142614487,-68.96092834851707
-3.904958506521739,-179.62809130000002,2.890750435496348,-1.49386945086,0.0,3.4222,11,46,800.2563891665133,1393.12684,mp-554483,KCd3H8Cl7O4,https://materialsproject.org/materials/mp-554483,-26.87989965605053,-2.6656814723247844,-34.20133941420336,-33.601712738400536
-6.385082257837838,-236.24804354,6.156064386036428,-2.483931847280406,0.0016474,0.0,12,37,853.7677135067967,3165.14631,mp-1208949,Sm4(TmS2)11,https://materialsproject.org/materials/mp-1208949,9.434670205327693,-3.0982876736616034,-5.483278803459784,-15.04991494908978
-5.037384500208334,-241.79445601,4.622524505894644,-1.1955237035641162,0.0,0.00029999999999974486,14,48,1441.2469783840656,4012.0703676,mp-573274,CsNb3SBr7,https://materialsproject.org/materials/mp-573274,7.572212945465031,1.2243073248128291,-2.2493978869675217,-22.024235922853823
-6.070600213461537,-157.83560555,2.6042143020582653,-2.161286378943516,0.0,6.4717,2,26,318.30205154001976,499.191368,mp-765294,SrP2(H2O3)2,https://materialsproject.org/materials/mp-765294,-29.74001858516365,-23.372817153310372,-31.34244556863048,-32.03449625044045
-5.972857499516129,-370.31716497,5.075833349083535,-2.4062326056230066,0.0,1.9444,12,62,1745.5192814862567,5335.595711399999,mp-1197810,Cs6Dy21S34Cl,https://materialsproject.org/materials/mp-1197810,9.250428708226664,-1.7259648522569664,-6.736147998114044,-18.520829819116198
-6.636238006666668,-318.53942432,2.9153758506225036,-2.943803253461311,0.0,4.7677,14,48,774.0814864868495,1359.0396959999996,mp-557747,K2SrP2O7,https://materialsproject.org/materials/mp-557747,-29.40478640760455,-23.757619115172783,-22.098557874226426,-30.54243584749367
-7.977702405982143,-893.50266947,5.294217055135757,-3.6790357642252034,0.0,4.4289999999999985,14,112,1882.018917444108,6000.3507359999985,mp-1196615,La4PClO8,https://materialsproject.org/materials/mp-1196615,-12.158036401759837,-59.23122416373071,-18.00341186192654,-56.783763327518464
-6.8966245614999995,-275.86498246,5.773557262190452,-2.6113866734999998,0.0,3.1727,217,40,703.7933726698909,2447.0315,mp-2973,Pr3Sb5O12,https://materialsproject.org/materials/mp-2973,-19.610571842084898,-67.2432269707289,-7.303192082208117,-67.76495723224056
-8.407069103294118,-714.60087378,5.708470390805219,-3.735695369818628,8e-07,3.4413,1,85,1313.0790005723145,4513.999620000001,mp-759763,La26B8O51,https://materialsproject.org/materials/mp-759763,-10.83238600143886,-59.60595083940515,-16.52052859470507,-69.79457474398112
-3.769038805,-37.69038805,4.858152997036388,-0.5161176954827589,4.4e-06,0.9630999999999998,63,10,356.8946600330458,1044.1482076,mp-8857,Cs2As2Pd,https://materialsproject.org/materials/mp-8857,-6.303615342664981,-3.715687826966788,-26.137212732908484,-45.58819175451259
-5.734583726166665,-344.07502357,5.542941841282606,-1.9447410292708336,0.00054775,2.2742,41,60,1337.0363257563265,4463.0776,mp-1202576,Tb4GaSbS9,https://materialsproject.org/materials/mp-1202576,9.503056715592537,-5.448121615431582,-8.210990702587504,-18.339898129418714
-3.924110765416666,-94.17865837,5.081925438704455,-0.8480480930034725,0.0,1.0027999999999997,11,24,634.4667711473634,1941.7266,mp-505747,TlIn5S6,https://materialsproject.org/materials/mp-505747,0.2774866792906828,-3.0609611874544376,-7.498118974512018,-18.846876216151365
-5.49700253025,-659.64030363,3.1320800787647496,-1.7739204198729164,1.0491801,0.0,2,120,2547.175905621405,4804.43923264,mp-686139,Na19Zr11S30,https://materialsproject.org/materials/mp-686139,14.795654984498013,10.148241818813057,28.25164437641725,-43.466283587301284
-4.220617434444445,-227.91334146,5.477770591518084,-0.11477958648148165,2.5e-07,1.2943000000000002,218,54,1325.8289227808937,4373.6320000000005,mp-1212667,Ge19(SbBr)4,https://materialsproject.org/materials/mp-1212667,18.679179432565093,23.57999278288937,16.355787284333175,-46.451196250358436
-6.3405241241666666,-76.08628949,6.1559524721023395,-2.0921570073697917,4.000282299999999,0.0508999999999995,8,12,256.0788922951309,949.336,mp-1225645,Er4FeS7,https://materialsproject.org/materials/mp-1225645,11.651382253662222,-2.601874033815161,-5.568538462587359,-17.427196877938563
-4.0199990119999995,-80.39998024,5.026952491751974,-0.4574526080000005,0.0,0.4539,13,20,794.396950879208,2404.87916,mp-540924,NbTeI3,https://materialsproject.org/materials/mp-540924,13.749316689558723,0.7727240123592999,-15.056023972306152,-6.80541413495604
-6.3480078777777775,-171.39621269999998,5.202390845344484,-2.8448297509722216,0.0,2.6915000000000004,160,27,540.6573205812092,1693.854,mp-770959,Ba3GeO5,https://materialsproject.org/materials/mp-770959,-7.074272465334147,-25.91915432963888,-26.82573130028347,-67.15607159287777
-3.4168975791176472,-116.17451769,3.5834073218194376,-1.1443742450278904,7.999061099999999,0.6435,36,34,1255.2066528981086,2708.7088,mp-1209819,Rb5Mo2Br9O,https://materialsproject.org/materials/mp-1209819,-6.277875501100988,-6.8567814715278965,-20.79707125753615,-29.798341517801124
-5.194733667142857,-72.72627134,4.11283682010232,-0.7273599751785714,5.000034599999999,0.0,12,14,344.57091481560326,853.4360899999998,mp-10412,Mn(SbS2)2,https://materialsproject.org/materials/mp-10412,-0.1891560695163329,-2.9311301275385153,-29.509676280785712,-35.662400690172596
-4.7242626725,-18.89705069,6.584578267215733,-0.013274322500000045,2.9545215,0.0,115,4,94.46663921206002,374.591,mp-1224961,FeCuTe2,https://materialsproject.org/materials/mp-1224961,14.664333590102885,22.117442999139982,-13.121480863853636,-73.53808137280646
-5.69778795,-22.7911518,4.479517982604295,-1.6415642511979174,8.5e-06,1.7035999999999998,160,4,96.7160668628982,260.90405,mp-1096795,YAgS2,https://materialsproject.org/materials/mp-1096795,17.16716694580641,10.194270560357102,-8.342072433242675,-15.294719960660501
-3.4758231541176468,-118.17798724,5.2595136013506805,-0.3218489985294117,0.0,0.7483999999999997,5,34,1144.834756058342,3626.0959999999995,mp-676609,Ga6SnTe10,https://materialsproject.org/materials/mp-676609,17.235896041246615,12.541511244905696,-13.262877535159285,-13.854421613244087
-6.4942140185,-129.88428037,5.609820813837283,-2.412085832937501,3.35e-05,1.0273,11,20,437.5692170798397,1478.245824,mp-1225691,Er3ScS6,https://materialsproject.org/materials/mp-1225691,10.151467508973026,-2.4599775982945253,-5.222335080372297,-15.604211592402336
-6.348051145833334,-76.17661375,6.086094157429223,-2.096133832369792,4.0000147,0.033999999999999815,8,12,256.4768131241196,940.02128,mp-1224136,Ho4FeS7,https://materialsproject.org/materials/mp-1224136,11.64816941885139,-2.6044638800749538,-5.593971870366053,-17.431878004333587
-7.80626961,-46.83761766,5.8894373254928025,-4.281750657480002,0.0,4.5753,129,6,98.06477541832822,347.80654639999995,mp-7100,LaOF,https://materialsproject.org/materials/mp-7100,-23.933060407254075,-66.69802534204946,-16.282666595450028,-67.95864997419969
-3.6489109757142857,-51.08475366,5.10650517854372,-0.7467608071428573,1.5e-07,0.4851000000000001,66,14,479.6200300816577,1474.932,mp-6987,Sr(GaTe2)2,https://materialsproject.org/materials/mp-6987,9.925597111074902,-22.179720285133723,-27.15381159661368,-34.59409530315832
-4.0993799107407405,-110.68325759,4.397822807726416,-0.9252636782098764,4.4e-06,0.0,115,27,670.6001047477821,1776.0379999999998,mp-1224223,In11S16,https://materialsproject.org/materials/mp-1224223,10.724657310112756,12.892132957284447,-20.825933202704263,-75.96936375221496
-4.303473934545455,-189.35285312,4.288501059088204,-0.5829242479474434,0.4582122,0.0,1,44,1136.7148752176015,2935.675,mp-767208,Sb17S27,https://materialsproject.org/materials/mp-767208,0.5037524346521876,-2.239611340556272,-29.92194002337902,-35.29453554151712
-5.9685877475,-23.87435099,3.503449388964468,-1.8219144090312505,0.44656899999999994,0.0,166,4,92.16506354705237,194.4523,mp-1002123,KZrS2,https://materialsproject.org/materials/mp-1002123,6.275530037799735,-0.06848565508451196,28.031971218392247,-43.1752553059828
-4.011952145,-72.21513861,5.262380509111353,-0.906994716145834,0.0,1.7068000000000003,12,18,447.55094497910005,1418.3246,mp-572596,TlIn3S5,https://materialsproject.org/materials/mp-572596,-0.030708287389925443,-3.389620985291478,-19.153922720701186,-33.41644583211211
-3.719252428571429,-26.034767000000002,5.1420037989031835,-0.7827393599999998,1.93e-05,0.5955999999999997,97,7,254.20663788944256,787.173,mp-38117,Ba(GaTe2)2,https://materialsproject.org/materials/mp-38117,9.86877877779392,-22.019543927066227,-27.104829211394787,-34.476247386471016
-3.35747301,-10.07241903,5.7982387153441195,0.025231263333332997,2.6509375,0.0,164,3,89.56521973580546,312.742135,mp-569610,CoI2,https://materialsproject.org/materials/mp-569610,20.54529248438763,10.836695101262565,28.252600688806833,-40.481928219795776
-2.5502089744444443,-45.90376154,6.448460496463173,-0.212878976597222,0.0,1.2214,186,18,576.5305681995625,2238.87214,mp-570084,Hg3AsSe4I,https://materialsproject.org/materials/mp-570084,-3.1183985994903254,1.5064517352212174,-28.22548900010864,-37.68857738053714
-7.506089599999999,-180.14615039999998,3.631654881001863,-3.143033317819941,0.0,5.3837,154,24,287.2407860103682,628.205286,mp-558022,SrBPO5,https://materialsproject.org/materials/mp-558022,-20.9465415709848,-30.837829911852086,0.19708127170193407,-14.558338744222754
-7.50627720875,-180.15065301,3.62430203879026,-3.1432209265699407,0.0,5.3819,152,24,287.8235288815931,628.205286,mp-6486,SrBPO5,https://materialsproject.org/materials/mp-6486,-20.95042233354995,-30.83276019131545,0.1956716116937126,-14.560742258899348
-3.423707745,-116.40606333,5.136656754624822,-0.32730587147058793,0.0,0.8757999999999999,155,34,1140.544248670707,3528.1220000000003,mp-18388,Ga7Te10,https://materialsproject.org/materials/mp-18388,17.23399956584149,13.09806593890548,-13.142440018400194,-13.870625975826465
-4.9627866504761915,-208.43703932,4.921525682575139,-1.0438706788161942,0.0,1.7144,15,42,1466.0388321996693,4345.0636152,mp-1200567,Cs4Hf3Se14,https://materialsproject.org/materials/mp-1200567,-2.7295612200222497,2.4343626458272642,-1.1660405856137213,-20.0230775695299
-3.205434284375,-51.28694855,5.403480190314639,-0.14286777152343744,0.0,1.0355000000000003,14,16,488.0198401803421,1588.04188,mp-1213068,CuTeSeI,https://materialsproject.org/materials/mp-1213068,-4.514519668098586,-2.046258777490616,-30.676095381804448,-37.27018180408593
-2.52456872,-15.14741232,6.0044521619515825,-0.3169477425,0.0,0.2881,181,6,160.13066850741166,579.0269999999999,mp-9281,ZnTe,https://materialsproject.org/materials/mp-9281,21.305700136710605,8.239098636226702,28.02745703177493,-38.13317591312458
-5.722292279833334,-343.33753679,5.675274578778089,-1.9383217936041677,0.000286775,2.2782,41,60,1322.5947085427138,4520.272,mp-1196712,Dy4GaSbS9,https://materialsproject.org/materials/mp-1196712,9.526080912934589,-5.3529311760743425,-8.15825177661396,-18.313806615821523
-5.5129664358333335,-66.15559723,5.171463554256364,-1.3294332136646905,4.99999975,0.5471999999999997,63,12,378.6715976144045,1179.3076337999998,mp-1213649,CsHoMnSe3,https://materialsproject.org/materials/mp-1213649,10.223470935688539,0.7392816107117456,-3.022207899832253,-19.933777820707625
-4.134794527,-41.34794527,4.114540834592436,-1.3988821775747122,1.99966365,0.0,194,10,339.3967279277786,840.9689037999999,mp-22962,CsTiBr3,https://materialsproject.org/materials/mp-22962,-0.6609918510667545,12.792975987040991,-26.710688301159948,-68.64874983558471
-7.179049086666668,-86.14858904,4.008297684576105,-2.463394878203126,0.0,0.0,12,12,277.1437033094511,668.98425,mp-15670,Y5S7,https://materialsproject.org/materials/mp-15670,17.211076498647433,5.402632576433956,-3.233027789631601,-16.081913988801222
-4.5686630025,-18.27465201,4.6083322706609335,-0.4535100050862066,4.0000701,0.0,119,4,142.55025711947476,395.60584500000004,mp-10287,RbMnTe2,https://materialsproject.org/materials/mp-10287,-6.497746650027922,-12.863237586735845,-19.91829865479729,-65.64683500559951
-4.412198672272726,-97.06837079,6.493950706876501,-1.1318498349250588,1.5e-07,1.0943999999999998,63,22,597.9217152079392,2338.3215038000003,mp-542164,CsTb2Ag3Se5,https://materialsproject.org/materials/mp-542164,18.284679069881253,1.1414249314190643,14.1579816782477,4.207216725765248
-5.009755136666667,-60.11706164,5.435011242281033,-1.1677644011646915,3.00000005,0.0,63,12,362.75078068813497,1187.2979338,mp-13259,CsHoCoSe3,https://materialsproject.org/materials/mp-13259,10.1055610390209,0.7175775027566402,-2.8615035394020434,-20.01784736127005
-3.7484263857142857,-26.2389847,5.2851926326097285,-0.3825683015773811,0.0001849,0.0,82,7,191.34682073442542,609.0219999999998,mp-1078168,In2CuSe4,https://materialsproject.org/materials/mp-1078168,13.974360621950572,14.761305335132857,-16.458237732430447,-73.28023086294832
-4.1450125571428575,-232.12070319999998,3.8389746323490854,-0.3012676031157636,0.0,1.3884,15,56,2115.7698897486584,4891.4158228,mp-573812,Cs3As11,https://materialsproject.org/materials/mp-573812,-6.504461986177557,-2.8067925956032695,-32.35176860619207,-47.0220561233353
-3.73053511,-223.8321066,3.279924437760217,-0.8349433465833334,0.0,1.1193,1,60,1634.591441926774,3228.6723088000003,mp-673834,Mg5(AlSe4)2,https://materialsproject.org/materials/mp-673834,-4.8237553990074975,-1.9130766125663043,-29.700789386548934,-37.53125250057858
-4.31384016125,-34.51072129,5.539860152434983,-1.9973870702974998,2.05e-06,0.24529999999999985,129,8,177.841628203356,593.3120064,mp-1079320,BaZnAsF,https://materialsproject.org/materials/mp-1079320,18.552655949991546,-37.61386794412695,20.42438306366543,-40.22692503497362
-7.191342367692307,-93.48745078,4.7072045187074085,-3.026805991538462,1.8000000000000001e-06,3.7317,160,13,208.89082720202234,592.1522,mp-1228399,Ba2SrV2O8,https://materialsproject.org/materials/mp-1228399,-10.04013638109985,-31.522094556569662,16.633014944570366,-72.43905937673863
-3.4706311907142857,-48.58883667,5.97923019896504,-0.09886537654017856,0.0,0.8418999999999999,161,14,352.92730543830896,1270.8124,mp-5145,Ag3AsSe3,https://materialsproject.org/materials/mp-5145,19.5208617690274,23.46295451291836,17.555300486892744,-41.65075536104248
-4.46980467875,-35.75843743,3.8018932679554394,-1.093401222447917,0.0,1.9003,122,8,173.81530770430226,397.9594772,mp-5782,AlAgS2,https://materialsproject.org/materials/mp-5782,-2.106540991183531,9.208901106613467,-35.10126093770688,-50.876719901762435
-5.0992478625,-20.39699145,4.070639914293402,0.39053514999999983,7.9045901,0.0,164,4,104.60118533271714,256.41900000000004,mp-1067840,EuMg2Fe,https://materialsproject.org/materials/mp-1067840,-7.690240507894093,5.718181640171447,-16.09263087556155,-11.794451367709561
-2.97095427578125,-190.14107365,4.035666807533417,-0.2118861463846984,0.0,1.3382999999999998,218,64,2706.3978363109964,6577.454460800001,mp-1273,CsGe,https://materialsproject.org/materials/mp-1273,-7.3448749487862255,-6.674887738594508,-28.679493859993826,-47.47946408406125
-6.322390495,-126.44780990000001,6.447615004017418,-2.4524680654374995,0.0,1.1833000000000005,11,20,447.16023168058837,1736.25368,mp-2309,Tm2S3,https://materialsproject.org/materials/mp-2309,9.613173590235176,-3.1355355944880645,-5.4318288462353275,-15.415206081252752
-5.573917284375,-89.18267655,5.960598853124346,-1.6973403814062502,1.35e-06,1.7643999999999995,19,16,330.5257377683983,1186.44084,mp-1189200,TmCuS2,https://materialsproject.org/materials/mp-1189200,16.17418294184035,-12.995711690820801,-10.281939926745403,-16.62002284771881
-3.77305686,-15.09222744,7.162321599256135,-0.050116781666667,3.9e-06,0.0,160,4,97.78276396379648,421.7616,mp-976804,NiAgTe2,https://materialsproject.org/materials/mp-976804,32.70947222334937,-4.448512710429567,60.450517517521476,-13.776904357371766
-5.093125026428573,-285.21500148,5.424537553734453,-1.4680992073214294,3.369972375,0.0,12,56,1298.3859098791631,4241.48,mp-676013,Yb2FeS4,https://materialsproject.org/materials/mp-676013,12.069123681220914,6.671309385071576,-23.371014678349642,-78.7452780752447
-3.516503505294118,-119.56111918,5.040215948074717,-0.4805942114705881,0.0,0.9728000000000004,5,34,1142.8341599929975,3468.8320000000003,mp-675750,Ca(Ga3Te5)2,https://materialsproject.org/materials/mp-675750,17.247351507385034,12.86358991080615,-13.19956466186985,-13.870378534083068
-3.0868945025,-61.73789005,3.85171598350638,-1.2619080058333332,0.0007422,2.67,15,20,530.3295720718386,1230.13,mp-1147621,Li3InBr6,https://materialsproject.org/materials/mp-1147621,1.2372723801729597,12.647227346182262,-25.713389804175602,-75.3132677156556
-3.4060698455357143,-190.73991135,6.349408633092702,-0.10981942913371613,0.0,0.4411999999999998,198,56,1317.8963512447922,5039.244648,mp-8594,Ag7PSe6,https://materialsproject.org/materials/mp-8594,29.811304854853805,-3.8338063962872235,13.879666147826992,5.430838710363556
-4.047126130909091,-178.07354976,3.5210556802890585,-0.6011800966236358,0.0,2.8287,14,44,726.6002124367841,1540.7044,mp-1198034,CdH5Br3N2,https://materialsproject.org/materials/mp-1198034,-3.13007579135849,7.681294610693593,-0.3894135673506927,-16.741048552214416
-7.226175293250001,-289.04701173,3.5133487537132018,-3.1444385453660715,0.0,5.2118,2,40,562.1992540266787,1189.494496,mp-31127,Sr3P4O13,https://materialsproject.org/materials/mp-31127,-21.308374921373343,-31.434878696145663,-19.718136378767237,-31.290397750590078
-6.399984272432432,-236.79941808,6.239892620788994,-2.4793857021452714,0.0008609999999999999,0.0,12,37,853.4452664143819,3207.035,mp-1201342,Nd4(LuS2)11,https://materialsproject.org/materials/mp-1201342,9.362045042293936,-3.1273734574302967,-5.502935659884112,-15.092603914154651
-3.5828984940909088,-78.82376687,4.289047664008026,-0.9077814658522728,0.0004559,1.355,9,22,516.9890888453438,1335.344,mp-1215786,ZnCd3GeS6,https://materialsproject.org/materials/mp-1215786,-1.6220256486965308,-2.766640086868362,-30.49915337035221,-36.83869245694423
-5.1174769116666665,-214.93403029,5.3168223692841305,-1.4924510925595242,3.967161283333333,0.0,1,42,993.517740229796,3181.11,mp-676269,Yb2FeS4,https://materialsproject.org/materials/mp-676269,12.136368781779888,6.660832985673808,-23.565935071793934,-78.72447911805611