energy_per_atom,energy,density,formation_energy_per_atom,total_magnetization,band_gap,sgr,num_sites,cell_volume,weight,mp_id,formula,URL,tsne_cry_0,tsne_cry_1,tsne_xrd_0,tsne_xrd_1
-5.972998357333333,-89.59497536,4.3322346421471085,-1.8428832620000009,11.9999994,0.0,8,15,143.84671227537808,375.286395,mp-763428,Li3Fe3CoO8,https://materialsproject.org/materials/mp-763428,11.212514488210356,76.73248953693513,21.55309538851343,82.84980813676826
-5.2778288125,-21.11131525,8.791842977650834,-0.17857660916666607,8.599999999999999e-06,0.0,225,4,67.4606033251149,357.175,mp-1184579,HfTiZn2,https://materialsproject.org/materials/mp-1184579,93.32407830530994,9.198568964015728,58.07513989648122,67.22597034101442
-5.425519872000001,-27.12759936,5.6117158077504685,0.321336960048,8e-07,0.0,115,5,62.3796568792198,210.8092,mvc-13905,Zn(NiN)2,https://materialsproject.org/materials/mvc-13905,26.014355274453287,49.897166088061006,12.227635797380948,45.134574038552294
-7.53088314125,-60.24706513,3.932502395059592,-2.966400544791667,0.96107655,0.0,194,8,73.3101042829944,173.6136,mp-764648,LiTiO2,https://materialsproject.org/materials/mp-764648,15.71428561100188,75.7138636571753,12.511640452768564,69.16651610117475
-5.8580920425,-23.43236817,18.332822778924953,-0.020934879999999545,0.0649515,0.0,139,4,62.649837001382465,691.6719999999998,mp-1186450,PdPt3,https://materialsproject.org/materials/mp-1186450,60.92849279430957,57.27865475736638,82.27694180118499,14.903918974325281
-9.857338433333334,-59.1440306,10.507990012752725,-0.11479325666666658,1e-07,0.0,227,6,89.27924762696028,564.9644000000002,mp-819,HfCr2,https://materialsproject.org/materials/mp-819,80.56627922776464,29.95108321163953,71.12551107192083,25.81412518801449
-7.193888917857144,-402.85777939999997,3.5004839865878017,-2.8428846621428585,9.9999996,1.7645,5,56,526.561117289076,1110.0123,mp-863437,Li9V5(Si5O16)2,https://materialsproject.org/materials/mp-863437,-0.7010216042383881,72.60687386793285,3.7939325159970942,58.031731598418475
-6.816540022857143,-95.43156032,3.449837444953092,-3.168018901428572,3.6000000000000003e-06,4.7521,227,14,135.4419673022017,281.3862,mp-5639,Mg2SiO4,https://materialsproject.org/materials/mp-5639,-10.027783428133887,55.85633390452654,14.391471683956926,53.31290450127375
-4.547628061999999,-22.73814031,4.04685837591226,-1.0625723513189655,3.0000006,0.0,221,5,58.46277818059102,142.478182,mp-975394,RbBeO3,https://materialsproject.org/materials/mp-975394,38.78729200494092,41.148105870559675,54.51508647039967,-22.237348262293075
-2.7588570333333333,-8.2765711,7.021505327062823,0.2882672483333331,3e-07,0.0,216,3,70.40807894373282,297.717,mp-10685,CdCuSb,https://materialsproject.org/materials/mp-10685,86.3102266797106,0.530613072417777,65.9421465083133,47.793253528753006
-6.5580101725,-52.46408138,2.991287827173332,-2.69784261653,0.0,5.142600000000002,36,8,66.60200175509517,119.97655719999999,mp-625054,AlHO2,https://materialsproject.org/materials/mp-625054,-6.701317141766638,68.8071607088358,-8.345105803655503,63.42440780286586
-7.3924586560000005,-147.84917312,12.292128170235019,-0.015126501999999676,2.0025e-05,0.0,213,20,363.47338800733536,2690.609112,mp-1188500,Nb3Au2,https://materialsproject.org/materials/mp-1188500,63.50823937778532,22.890120350689532,69.25762502876435,16.49921021888874
-5.8066867090625,-185.81397469,4.232107697550971,-1.871337745685,20.0000003,0.8186999999999998,1,32,283.68185415140516,723.001465,mp-1175851,Li9Mn2Co5O16,https://materialsproject.org/materials/mp-1175851,10.503497390942792,87.42210408035378,8.491584450761604,96.25441561878158
-7.181795722916667,-172.36309735,4.38163277735954,-1.8532227985333327,21.0000001,0.6001000000000001,8,24,260.23188511120816,686.668925,mp-771133,Mn5Cr3O16,https://materialsproject.org/materials/mp-771133,-11.2082881530584,69.67597980446469,1.2522914959146194,59.199117063051965
-9.3413379125,-74.73070329999999,9.07497542056092,0.05355160031250072,0.4886963,0.0,164,8,88.41954270521776,483.2197,mp-1226231,Cr3Ru3C2,https://materialsproject.org/materials/mp-1226231,61.75855570922248,61.97332594544387,85.74560405426381,12.822108868660527
-5.151829084,-25.75914542,3.5817519664565425,-1.6508750795000005,1.0,0.8842000000000003,71,5,48.59290432889792,104.81399499999999,mp-755133,Li2CoO2,https://materialsproject.org/materials/mp-755133,-27.183613900355567,58.941171023989114,-37.41689921806781,61.06785566991621
-4.3493571425,-17.39742857,8.527946152487575,-0.6712378433333335,2.49e-05,0.0,225,4,68.5333011823765,351.963,mp-865043,MgInPd2,https://materialsproject.org/materials/mp-865043,93.293831069154,8.989931658070496,58.614718249410096,66.97141242041806
-5.432189606666667,-65.18627528,4.931841859705174,-1.7850805177083344,4.999999900000001,0.0,5,12,105.36617598670843,312.9401385999999,mp-1222873,Li2Al(NiO2)3,https://materialsproject.org/materials/mp-1222873,22.227288328717464,77.85159643053673,28.629275154753426,77.37893068901505
-3.2803615175,-26.24289214,14.56800178676783,-0.3481521325000001,1.8000000000000001e-06,0.0,194,8,136.2901856006647,1195.681414,mp-1185333,LiAu3,https://materialsproject.org/materials/mp-1185333,50.335257938176724,35.73978862245695,54.730013913931224,33.35660399591724
-3.8188192510000003,-76.37638502,10.424974299785898,0.09735992600000072,7.5e-08,0.0,198,20,322.5926833651918,2025.2582760000003,mp-1181705,Cu3SnAu,https://materialsproject.org/materials/mp-1181705,51.24885117035393,39.796602562863306,71.74065070061668,18.673694670884927
-7.123488897727272,-156.71675575,3.865514849460453,-2.591928776590909,6.00000005,2.8458,70,22,207.87789759608543,483.9122,mp-758734,Li2Cr2SiO6,https://materialsproject.org/materials/mp-758734,11.806269516398224,77.23169204858677,-7.430193504717412,67.11527079786254
-8.826658546666666,-52.95995128,11.821153721312168,0.1909110971875,3.8680162000000005,0.0,216,6,85.33607196268358,607.496,mp-1226594,CePuFe4,https://materialsproject.org/materials/mp-1226594,71.7661332530648,49.739699970420865,71.39693397984,22.986107039227356
-5.834993803928571,-163.37982651,4.193511366434843,-1.8944806090864283,9.00000005,0.8127999999999997,1,28,247.53723997485602,625.12847,mp-1174671,Li4MnCo2O7,https://materialsproject.org/materials/mp-1174671,10.710715866927796,87.50708479807189,8.720729376942044,95.46833313278044
-3.016717953333333,-18.10030772,6.155134744156383,0.013950696666666929,6e-06,0.0,220,6,112.85968704016248,418.338,mp-569423,Ga,https://materialsproject.org/materials/mp-569423,100.86862798533429,4.138105812628907,47.86591058178605,27.37818835020649
-7.33258114,-58.66064912,6.204948373188394,-0.3778990700000007,0.14288395,0.0,223,8,142.02932037193315,530.722,mp-1412,Ti3Sb,https://materialsproject.org/materials/mp-1412,45.5303136938761,34.15674384039988,70.07122003626489,25.22782478053204
-6.1787556125,-49.4300449,16.8261044195729,-0.6991081424999992,2.35e-05,0.0,140,8,120.84053053421528,1224.4670772,mp-1080448,AlPt3,https://materialsproject.org/materials/mp-1080448,56.98375779662222,58.10529316434355,80.16232373021737,12.234327716209815
-7.87844039375,-126.0550463,6.907330908044805,-0.08301791906250068,0.32602159999999997,0.0,47,16,239.0584558024443,994.4095386,mp-1229114,Al(V4Sn)3,https://materialsproject.org/materials/mp-1229114,50.39144394623577,40.86365250324164,71.85132075386285,18.761197589553266
-5.736738975,-22.9469559,17.679762348622486,-0.4364501374999996,7e-07,0.0,221,4,61.51731772620465,654.9749999999998,mp-11407,GaPt3,https://materialsproject.org/materials/mp-11407,58.19878636820997,58.281877494889486,81.89237101053342,13.3091097519981
-7.254373600416668,-174.10496641,4.388787895393016,-1.950729917323334,10.00000075,0.7394000000000003,186,24,260.12270137241717,687.50167,mp-771315,Mn3VO8,https://materialsproject.org/materials/mp-771315,-11.18287193590543,69.65274030134593,1.3647483068853157,59.11771082306238
-7.428814755999999,-37.14407378,6.379904003405236,-0.04403507895199965,0.03354240000000001,0.0,164,5,52.901041046453884,203.2494,mp-1246758,Fe2CuN2,https://materialsproject.org/materials/mp-1246758,51.12258849132039,26.16006812537257,55.35481535094744,41.911979175430886
-7.881910375,-15.76382075,14.037856709768409,-0.313893255,2.7000000000000004e-06,0.0,166,2,29.102373391604427,246.0255,mp-1216236,VPt,https://materialsproject.org/materials/mp-1216236,59.99387911583632,63.6460032911962,83.58556820045987,8.736875487164276
-5.17899945875,-41.43199567,7.3080295434003615,-1.0496248847916672,3.25e-06,1.4273000000000002,194,8,90.34322671977402,397.60039,mp-19178,CoAgO2,https://materialsproject.org/materials/mp-19178,24.77269202209945,50.04743584739653,11.575356062923039,43.96972117181132
-5.17243812,-20.68975248,11.399140356781487,0.005703829999999854,0.3011765,0.0,194,4,62.009786389434296,425.68,mp-1186427,Pd,https://materialsproject.org/materials/mp-1186427,66.97898476960253,61.191927695961894,88.50795184478554,18.06781476844481
-5.5926766428571435,-78.297473,4.376825705455079,-1.4090163435714271,4.99999995,0.0,12,14,143.26275613445367,377.60998,mp-1222978,Li(CoO2)2,https://materialsproject.org/materials/mp-1222978,10.741182559556027,76.25991122056395,20.72810644476151,84.57063008018726
-5.5229442678125,-176.73421657,4.297059543112557,-1.7277456024999998,21.9999998,0.6200000000000001,2,32,282.4816252887586,730.991765,mp-1175430,Li9Co7O16,https://materialsproject.org/materials/mp-1175430,9.705760128463448,86.78317480364036,8.97783658613907,96.18840500613004
-7.2901071264285715,-102.06149977,3.745564191748825,-2.7382993492857146,2.99999995,3.1286,74,14,133.90502743541003,302.0404,mp-753436,LiCrSiO4,https://materialsproject.org/materials/mp-753436,-1.239718211883421,73.82140852678991,3.4229287658583987,58.903867970355435
-5.263451688,-105.26903376,4.704114403906226,-1.5347576553750002,1.9999999,0.0,2,20,177.62936918827592,503.20339,mp-752862,Li5Co2Cu3O10,https://materialsproject.org/materials/mp-752862,2.7136276047609753,80.30242429668395,6.2139219166310635,76.83611866332191
-5.80495910625,-185.7586914,4.2469809594669465,-1.8696101428724996,22.0000001,0.6997,1,32,282.6883779484572,723.001465,mp-1175653,Li9Mn2Co5O16,https://materialsproject.org/materials/mp-1175653,9.983920180658831,87.05374654751743,8.739352240878894,96.29296597680869
-5.5222253115625,-176.71120997,4.312313890176823,-1.7270266462499997,22.0000001,0.6141999999999999,12,32,281.4823768895991,730.991765,mp-1175379,Li9Co7O16,https://materialsproject.org/materials/mp-1175379,9.67117159096733,86.72073713469965,9.071336495219564,96.11662196006979
-6.505731065000001,-65.05731065,3.360513327855952,-2.4567809622500016,3.0000002,0.7501000000000002,12,10,105.12446641579656,212.7454772,mp-755069,LiAl2FeO6,https://materialsproject.org/materials/mp-755069,3.5226655462902503,77.27413308526349,18.091683638272677,92.65503701956035
-9.535383895,-38.14153558,6.103156691944915,-0.8801705011900012,1.1074371,0.0,166,4,35.62898001849345,130.951,mp-1216389,VCrN2,https://materialsproject.org/materials/mp-1216389,29.464633468987635,60.177395972934505,56.398915028928215,44.175708480938795
-6.389783704666669,-95.84675557,1.9877829490907533,0.7981322862499999,1e-07,0.0,166,15,138.4747563139988,165.76409999999996,mp-571655,B4C,https://materialsproject.org/materials/mp-571655,-81.46431234371508,31.975758712588743,-77.88540345742004,41.419300810058644
-7.492756360833333,-89.91307633,4.001210433464902,-2.1474525099622226,9.000001,1.4429,166,12,141.38380464577,340.676335,mp-756589,TiMn3O8,https://materialsproject.org/materials/mp-756589,6.7585359326578205,70.56196526458284,15.847152883465936,83.5103481426049
-6.018197820625,-96.29116513,3.9467803222773687,-2.046699236995,8.0000001,0.8148,1,16,139.47683859312295,331.5094850000001,mp-1174375,Li5Mn2CoO8,https://materialsproject.org/materials/mp-1174375,6.497102806706188,86.22968264194748,-5.022320907378603,94.6157829078823
-9.126448759375,-146.02318015,5.787075740414018,-0.4512243855650002,0.15924829999999998,0.0,33,16,154.88697703384491,539.79018,mp-1245441,MnCrN2,https://materialsproject.org/materials/mp-1245441,22.012935924296627,52.15659210361483,44.91384225083666,37.0114889518199
-6.22211469375,-149.33075265,3.6582598093051706,-2.214407634038333,4.99999985,1.0619,15,24,209.4314336631527,461.38909,mp-768712,Li4MnCrO6,https://materialsproject.org/materials/mp-768712,-11.156527269292695,100.0482571281102,-12.430088023929265,97.96671004601471
-2.6008582325,-10.40343293,5.676183685662828,1.1317298277864585,1.4e-06,0.0,216,4,68.49648150176073,234.14,mp-631528,ZnBSe2,https://materialsproject.org/materials/mp-631528,92.9774639404526,9.105281877835449,58.150635921113185,67.27963624886638
-5.23531572525,-209.41262901,4.548048522615209,-1.5831077678749998,21.9999988,0.3689999999999998,10,40,353.3488606829091,967.7868,mp-771052,Li10Fe3Ni7O20,https://materialsproject.org/materials/mp-771052,14.130095607601936,80.17470817181591,23.089900984925233,82.75855093478941
-8.549664872777777,-153.89396771,6.261111833371066,-0.3778493634651849,3.8879344,0.0,2,18,173.59566036582058,654.5476,mp-1245996,Ti(FeN)4,https://materialsproject.org/materials/mp-1245996,25.936391996666213,54.48251952949173,60.41685705267786,6.987414346415996
-7.1055588699999985,-42.63335322,4.1300308887366715,-1.7951490394866656,0.0,1.3807999999999998,164,6,69.90844815743614,173.87368999999998,mp-25223,MnO2,https://materialsproject.org/materials/mp-25223,6.946814700193618,70.40244443672289,14.446670150902483,84.09967985306595
-2.7348298325,-21.87863866,7.934735423550105,-0.1363314899999999,2.42e-05,0.0,194,8,138.34963461318438,661.0912,mp-1185342,LiAg3,https://materialsproject.org/materials/mp-1185342,48.1639860570763,35.851951570476125,56.42174503998208,33.32983021707419
-9.849816624166666,-236.39559898,10.48234061763565,-0.10727144749999933,0.000194675,0.0,194,24,357.9908253818143,2259.8576000000007,mp-973904,HfCr2,https://materialsproject.org/materials/mp-973904,80.56776894790949,29.93983227919493,69.26611576524886,24.694213542857014
-6.215556815555555,-447.52009072,3.665930040239658,-2.209867877385,30.9987788,1.012,1,72,628.3123188299231,1387.109215,mp-780441,Li24Mn7Cr5O36,https://materialsproject.org/materials/mp-780441,-11.178087050152387,100.15470770824469,-12.392537287065196,98.10560649439897
-9.54718831,-28.64156493,6.507064636142124,-0.04756120958333317,3.15e-05,0.0,164,3,29.602801720042525,116.0029,mp-1226378,Cr2C,https://materialsproject.org/materials/mp-1226378,31.515780630914456,57.666892296568,85.4123902973327,18.02422414545157
-6.359005916,-31.79502958,11.20282077705766,-0.04402374400000042,0.0006292000000000001,0.0,166,5,77.3171678171123,521.62,mp-1221442,MoPd4,https://materialsproject.org/materials/mp-1221442,66.9506540637342,61.20734595548944,88.48710501394369,17.881434526688412
-7.16010544375,-400.96590485,3.4909862314254774,-3.3690349476785717,2e-07,5.240499999999999,186,56,526.8176165074437,1107.5397816,mp-554018,Mg3BeAl8O16,https://materialsproject.org/materials/mp-554018,1.9576371824457428,62.58844907617123,8.479060996220829,52.19114682218697
-5.74834957125,-91.97359314,4.0035625010573455,-1.917001285685001,7.9999999000000015,0.835,3,16,139.155700547029,335.504635,mp-1174000,Li5Mn(CoO4)2,https://materialsproject.org/materials/mp-1174000,6.653010464952153,86.17509246709959,-5.079743474033428,94.62915074613208
-6.215726859722222,-447.53233389999997,3.6701074300967127,-2.210037921551667,31.0014696,1.1079,1,72,627.5971611519165,1387.109215,mp-768759,Li24Mn7Cr5O36,https://materialsproject.org/materials/mp-768759,-11.185280632992107,100.21195739885323,-12.332185173021667,98.3215549165629
-6.3782669525,-51.02613562,3.97057745489244,-2.7073933125,2.7000000000000004e-06,4.264899999999999,121,8,65.42623948900075,156.44314599999998,mp-1227338,Be3ZnO4,https://materialsproject.org/materials/mp-1227338,-26.82208462008413,60.0470469318572,-3.604143833190352,56.93968370309242
-9.476683934166667,-113.72020721,11.190995302169032,-0.1361348858333334,0.0022351,0.0,38,12,156.64455518601537,1055.6864,mp-1226253,CrSiW,https://materialsproject.org/materials/mp-1226253,69.81732070582886,50.588244278474534,71.4500480909505,20.27156316154878
-10.793745612666669,-323.81236838,13.026365842061866,-0.2391857406666664,4.166666666666667e-07,0.0,35,30,504.17409257271515,3955.07484,mp-1220934,Nb3Os2,https://materialsproject.org/materials/mp-1220934,60.5851823224813,33.10916099326828,69.70940210815158,16.326271612234404
-5.557138937,-55.57138937,6.409665229776438,-0.4817936801720002,0.57716565,0.0,63,10,79.36859304684698,306.36203,mp-1188065,ZrCoH3,https://materialsproject.org/materials/mp-1188065,54.93064663901382,24.78329895011042,51.90221914867135,2.013158956892141
-6.416726593636364,-141.16798506,4.297805416684497,-1.9287966840381827,6.9999996,0.5897000000000001,2,22,215.3525979157629,557.37537,mp-779065,Li2Mn2CoO6,https://materialsproject.org/materials/mp-779065,10.699013664279024,76.24294227406044,21.26937295848172,83.61357406786333
-6.7914204303,-679.14204303,2.4151461502566214,-2.8134625796750004,1.6459999999999998e-05,4.3026,1,100,859.8384068547614,1250.5791,mp-1245079,BeO,https://materialsproject.org/materials/mp-1245079,-34.98647414573843,43.67069569444242,-1.494240997756943,55.842669342635276
-5.006842620625,-80.10948193,3.6328776653221904,-0.37618816947916667,4.49e-05,0.0,99,16,253.07683107649518,553.6739246000001,mp-1217109,Ti4Al11Zn,https://materialsproject.org/materials/mp-1217109,59.48070357724659,53.80801857924652,80.82488967201077,17.754440870346578
-9.47920630875,-75.83365047,11.15047827611466,-0.3801447062499985,1.5e-07,0.0,223,8,141.11836134059206,947.6062800000001,mp-2663,Nb3Pt,https://materialsproject.org/materials/mp-2663,64.25584831461983,23.053285451719013,69.84059458970178,25.357667365438463
-7.9559505425,-31.82380217,12.545654612389658,-0.2896004971875001,0.002539,0.0,225,4,67.83884481299683,512.534,mp-864608,NpGaRh2,https://materialsproject.org/materials/mp-864608,94.04756138349634,8.641576405614003,58.61109981726487,66.93453186770014
-9.55759026,-38.23036104,11.114343306277403,-0.34387037750000005,0.0,0.0,225,4,70.51824779045177,471.99373,mp-865519,YTaRu2,https://materialsproject.org/materials/mp-865519,95.69420055977608,4.500673842989594,65.51387207312429,65.09611000992561
-5.840424893333334,-35.04254936,10.670071805471613,-0.4955278166666671,0.0,0.0,227,6,89.1179035615151,572.64202,mp-1576,TmNi2,https://materialsproject.org/materials/mp-1576,79.97373376543429,29.580806760009857,71.36915588182347,26.11661071202208
-7.1954026625,-57.5632213,17.487907539173165,-0.3032868474999999,6.6708243000000005,0.0,123,8,121.29729678671283,1277.4381449999996,mp-1221728,MnCrPt6,https://materialsproject.org/materials/mp-1221728,57.501893706271886,58.27285078473679,81.56480453826441,12.350576767207775
-4.7372547119999995,-23.68627356,3.5821565274719256,-1.5606482795000003,0.0,2.9545000000000003,71,5,48.47625734527004,104.5742,mp-19183,Li2NiO2,https://materialsproject.org/materials/mp-19183,-27.20795573027945,58.94874119840333,-37.37054642245472,61.10287523864426
-7.4444383015,-148.88876603,7.1964236851977645,0.05793944404800015,0.04075895,0.0,59,20,206.59193751605343,895.3256,mp-1246623,CdFe5N4,https://materialsproject.org/materials/mp-1246623,24.97081952293915,53.3921493047601,62.20618038151431,9.535003728674589
-5.79805050375,-185.53761612,4.241321127133838,-1.8627015403724991,21.9999874,0.22109999999999985,2,32,283.0656115447229,723.001465,mp-1175732,Li9Mn2Co5O16,https://materialsproject.org/materials/mp-1175732,5.660831491224238,95.64692892837546,2.9678886749859386,90.15337961398852
-8.289300568148146,-223.81111534,6.2097378987432075,-0.4969739958725917,0.7083850666666667,0.0,202,27,291.52833979110915,1090.19694,mp-1246465,Sr(MnN)4,https://materialsproject.org/materials/mp-1246465,23.106049517576327,52.010732669817756,50.05280438414089,32.24045403336857
-5.32192895,-15.96578685,9.634351070858568,-0.4642616411111114,0.0,0.4532000000000007,216,3,69.46097950522335,403.008569,mp-961693,ZrInAu,https://materialsproject.org/materials/mp-961693,86.84564576080727,2.1846708926922283,58.10806951014439,69.5136711323674