energy_per_atom,energy,density,formation_energy_per_atom,total_magnetization,band_gap,sgr,num_sites,cell_volume,weight,mp_id,formula,URL,tsne_cry_0,tsne_cry_1,tsne_xrd_0,tsne_xrd_1
-3.769062528888889,-101.76468828,5.091417735464435,-0.2943799559567903,0.0082446,0.0,82,27,762.1338857761788,2336.7966,mp-1224264,In4Ag3(GeSe4)4,https://materialsproject.org/materials/mp-1224264,13.897242691406355,14.666643565677221,-16.531124481398987,-73.15945847598084
-6.9141549329166665,-165.93971839,2.9698992030201263,-2.8611966149404764,1.000000125,0.0,14,24,302.036833708087,540.197448,mp-1213989,CaPO4,https://materialsproject.org/materials/mp-1213989,-53.703838629179934,17.673070119732778,-11.632567455630033,15.758339227712359
-3.740812171875,-59.85299475,5.329026275037847,-0.4166167715885423,7.1e-06,1.0375,12,16,469.94799264801406,1508.164,mp-570321,InSb2Se4Br,https://materialsproject.org/materials/mp-570321,16.587408830397695,2.2265922919743546,-0.4593295872360902,-16.75362861952658
-4.8297567783333335,-28.97854067,4.752181804013,-0.1024282670689652,4.61248415,0.0,129,6,216.36743488594126,619.2069938,mp-510378,CsMnSb,https://materialsproject.org/materials/mp-510378,2.594617586394284,-4.063583171933105,-66.19837096181035,-56.9031416088969
-5.609614075,-33.65768445,5.9697555385998,-0.7738957694444443,5.7100000000000006e-05,0.0,10,6,180.6615287100353,649.491,mp-8677,ZrTiTe4,https://materialsproject.org/materials/mp-8677,19.919965572432393,9.287240288674699,28.229059050546077,-39.73202713434677
-4.071270924285714,-56.99779294,4.369860283813666,-1.036187178536535,4.34e-05,1.2643000000000004,12,14,348.10791461958235,916.0778,mp-20938,RbIn5S8,https://materialsproject.org/materials/mp-20938,-0.331539034468471,-2.9981849585664784,-29.5798150468525,-36.64883324677208
-3.675693279166667,-44.10831935,4.187901733555184,-0.4569094907814287,0.0,1.1183999999999998,9,12,280.09072752913823,706.392572,mp-29246,Cd2P3Cl,https://materialsproject.org/materials/mp-29246,-0.4836809565905508,-3.183620188999931,-14.70911000548065,-31.460132398690906
-4.4510833155,-89.02166631,4.813923737039898,-1.1110237386562505,3.725e-05,0.0,12,20,579.6598994000905,1680.4414000000004,mp-1237963,TbMgSe3,https://materialsproject.org/materials/mp-1237963,11.539902230603245,2.1595066178189963,-11.590199838059393,-9.077386546746393
-6.038182771071428,-169.06911759,5.4020350143094165,-2.4793675455357147,1.225e-06,1.5801999999999996,62,28,637.2493973543031,2073.0879999999997,mp-505362,Ca(LuS2)2,https://materialsproject.org/materials/mp-505362,12.601229623498632,6.365986739347553,-7.068737687200693,-16.82027527132533
-4.25570102,-51.06841224,5.534457581471412,-1.2332072053313574,0.0,1.3946,63,12,395.6168509853926,1318.5626037999998,mp-11123,CsYHgSe3,https://materialsproject.org/materials/mp-11123,10.089196231519136,0.6010754379944466,-3.4283688043917198,-20.356644953235033
-6.03980017,-42.27860119,6.278854510105875,-0.3626293709523815,7.813689999999999,0.0,12,7,175.14456728200642,662.2592,mp-1025207,Ti(CrTe2)2,https://materialsproject.org/materials/mp-1025207,20.65106547811816,9.48828617316823,26.99525353713048,-40.07702192476713
-4.4672074155,-89.34414831,4.546946838556192,-1.10334829815625,4.45e-05,0.0,12,20,593.3529235424902,1624.74,mp-1237948,PmMgSe3,https://materialsproject.org/materials/mp-1237948,11.721988249181384,2.07604633371844,-11.518652218716376,-8.959090602451457
-6.4394864035,-128.78972807,5.526927787685054,-2.3573582179374997,0.0,1.0444,11,20,444.13189311762466,1478.245824,mp-1212825,Er3ScS6,https://materialsproject.org/materials/mp-1212825,9.996813279275507,-2.015701944203168,-7.107356307884745,-16.6148963426492
-5.9666999117741915,-369.93539453,5.181773565771775,-2.40934960521978,0.0,1.9582,12,62,1726.1876330440525,5386.632431399999,mp-1199243,Cs6Ho21S34Cl,https://materialsproject.org/materials/mp-1199243,9.274738937393122,-1.7138963338523747,-6.725357764941317,-18.54507788034862
-6.064701072857143,-42.45290751,6.2268831883454006,-0.13901934428571394,9.999023900000001,0.0,164,7,177.7074909676066,666.3883,mp-570122,Cr3Te4,https://materialsproject.org/materials/mp-570122,20.797355705424522,9.390150289416427,26.963072411700548,-39.982681496845224
-6.601612393571429,-92.42257351,5.4659962234841375,-1.9913477101785717,5.00012225,0.13539999999999974,36,14,304.43160514485834,1002.09749,mp-1217708,Tb2MnS4,https://materialsproject.org/materials/mp-1217708,11.665130442726726,-1.9737243571486969,-6.197623403252732,-17.259427193768822
-4.092847818,-40.92847818,4.712893473291113,-0.9134533617708342,0.0,0.2915000000000001,167,10,229.60633377711792,651.6619999999999,mp-22375,In2S3,https://materialsproject.org/materials/mp-22375,10.883700506682118,12.889181214205667,3.4016435617566403,-16.438342520189355
-5.782979998571428,-40.48085999,6.970141065787427,-0.18470827428571415,5.918418900000001,0.0,8,7,159.1721913868874,668.1279999999998,mp-1216743,V2FeTe4,https://materialsproject.org/materials/mp-1216743,19.41557654225909,10.463966324094699,26.545286939219764,-40.93263492980071
-3.825638545,-53.55893963,4.522739209169799,-0.4937779153392857,0.0,1.0751,2,14,439.451989160546,1196.9166,mp-9797,K(SbSe2)2,https://materialsproject.org/materials/mp-9797,-0.20686970665432955,-1.1713819804667092,-19.298170044022125,-31.00690212184423
-2.577973781,-25.77973781,4.4005866365455,-0.1745727289999998,2.5e-07,0.0,140,10,281.4849759051374,745.962,mp-1096988,GaCuBr3,https://materialsproject.org/materials/mp-1096988,16.90148006024733,3.3570248251042654,-2.6377661262616927,-15.661007081875004
-6.50473338972973,-240.67513542,6.306964280064467,-2.4577318294425683,4.3811855,0.0,12,37,840.0239875428762,3190.531,mp-680039,Ce4(LuS2)11,https://materialsproject.org/materials/mp-680039,9.649146535088628,-3.1056733918302144,-5.513251388798919,-15.314860497836086
-4.67933916875,-37.43471335,6.120272302752848,-2.0326263702975007,3.5e-07,0.9836999999999998,129,8,188.5503787266641,694.9428063999999,mp-13287,BaCuTeF,https://materialsproject.org/materials/mp-13287,18.551748015463428,-37.588150318146,20.602182793767312,-40.081840931795924
-3.812859677083333,-91.50863225,3.6211938764996328,-0.9304874715312508,0.000611175,1.9724,14,24,562.2279010584626,1226.06947712,mp-1192203,NaCdAsS3,https://materialsproject.org/materials/mp-1192203,-3.1157126089227987,-2.530451513988388,-29.274215533542925,-33.2143103597532
-6.977701992499999,-83.73242391,4.07375284680414,-2.096010557369792,4.0000373,0.06109999999999971,8,12,259.2144570031903,635.9233999999999,mp-1216175,Y4FeS7,https://materialsproject.org/materials/mp-1216175,17.331404806279014,5.520947350236833,-3.2215129741139674,-16.321800562079044
-4.7434783185714275,-33.20434823,4.344112704094479,-0.6619352002827387,4.8125865999999995,0.0,160,7,193.6572696496321,506.624045,mp-1221756,MnIn2(SeS)2,https://materialsproject.org/materials/mp-1221756,15.237602248637725,12.829693910212722,-8.651047486880318,-14.734708157349566
-4.631137343181818,-101.88502155,4.838257965872697,-0.05259383409090968,0.0,0.5057,11,22,452.4407983612925,1318.261868,mp-29849,Ag3SnP7,https://materialsproject.org/materials/mp-29849,9.766852400345043,2.852767428674034,-2.4207742440695768,-18.46104580835944
-3.985304451875,-63.76487123,4.51508621626038,-0.5161183004241074,5e-08,0.9914999999999998,31,16,355.1524430356148,965.676724,mp-12459,Ag3PS4,https://materialsproject.org/materials/mp-12459,-1.5606366362477513,-2.6050387347709303,-15.103763107077086,-69.70011376385501
-5.527568406785713,-154.77191539,4.4570089446455885,-1.495081733125,0.00023555,0.9509,62,28,640.9016939742262,1720.227296,mp-1232159,Mg(ScSe2)2,https://materialsproject.org/materials/mp-1232159,19.399918026475913,10.446339447292381,28.52041268137837,-29.972134877508623
-6.011294505,-84.15812307,5.1866758168659945,-2.466105150892858,0.00028849999999999997,1.5266000000000002,36,14,324.12880711582517,1012.4128400000001,mp-1214092,Ca(TmS2)2,https://materialsproject.org/materials/mp-1214092,12.694617879051187,6.459068495644876,-7.105548618629316,-16.877454292720188
-6.4933145749999985,-77.91977490000001,5.940359684912485,-2.183112395703125,4.999899299999999,0.5663,8,12,262.5154169782772,939.114325,mp-1223970,Ho4MnS7,https://materialsproject.org/materials/mp-1223970,11.571220298311234,-2.4088567060847796,-5.727169509058241,-17.262191011120393
-3.7785183894444447,-68.01333101,4.407973354918278,-0.7230342909620452,0.0,0.835,15,18,605.1176455077956,1606.3112,mp-9322,Rb2Sn2Se5,https://materialsproject.org/materials/mp-9322,-3.149079774703704,2.0505705922953648,-4.8024650098930275,-21.279323798245468
-6.504425486000001,-130.08850972,5.605068262192448,-2.4222973004374997,2e-07,1.0189,11,20,437.9402331326482,1478.245824,mp-1225623,Er3ScS6,https://materialsproject.org/materials/mp-1225623,10.299292539239202,-2.3883591868889127,-5.790162962122258,-15.786640416432721
-4.2959734025000005,-51.55168083,5.263982540781662,-1.4186101019980246,0.0,2.1028,63,12,374.8337377067058,1188.2396038,mp-573710,CsTbZnSe3,https://materialsproject.org/materials/mp-573710,10.159064455719003,0.7272695385966318,-2.931284745125444,-19.98205271119356
-6.4202924434615385,-166.92760353,2.7208038639307617,-2.6329670131648357,0.0,4.1479,11,26,439.29661724659513,719.790324,mp-772777,K3SrPCO7,https://materialsproject.org/materials/mp-772777,-17.692368628162203,22.881294412333503,-22.585806769440122,-30.28471508286727
-2.5987572983333336,-46.77763137,6.406997972440917,-0.3870814450000001,7e-07,0.5696000000000003,128,18,707.693826685188,2730.55484,mp-1208181,Tl2PtI6,https://materialsproject.org/materials/mp-1208181,-1.2223247839389109,14.095074017879515,-28.341641423490877,-69.83842102771106
-4.076988862857143,-57.07784408,4.194108148690976,-1.0352049847976192,0.0,1.2580000000000005,12,14,344.33651550277176,869.7083,mp-22199,KIn5S8,https://materialsproject.org/materials/mp-22199,-0.3143681079822221,-2.9013950831025643,-29.549036078060695,-36.76215833373865
-5.838178478461539,-75.89632022,6.48129546952007,-0.19795999076923135,14.048862699999997,0.0,164,13,328.14211787172314,1280.7804999999996,mp-1213750,Cr5Te8,https://materialsproject.org/materials/mp-1213750,20.279342824982567,10.154581073797734,27.083271978120237,-40.44427886423129
-7.5184526929999995,-150.36905386,5.62074702708383,-2.9136729483750003,1.999999925,0.0,14,20,425.8467213170533,1441.4456,mp-755777,Ce2S2O,https://materialsproject.org/materials/mp-755777,11.052809552170963,-5.130810855008954,-7.240756381462313,-20.01241076219833
-3.918724661875,-62.69959459,4.384551541956034,-0.8051483935416663,0.000417575,0.16819999999999968,59,16,649.2563682047305,1714.32164,mp-23264,TiI3,https://materialsproject.org/materials/mp-23264,-7.682682993713285,-16.004923952196936,-34.0882894265295,-13.271182120759974
-6.485483386666666,-77.82580064,5.917672562665881,-2.427557408203125,1.1619038000000002,0.0,8,12,280.68321679600126,1000.2724,mp-1217639,Tb4CeS7,https://materialsproject.org/materials/mp-1217639,10.238274945357023,-3.179873921512693,-4.866652968908913,-15.863360581521736
-7.123987094166666,-85.48784513,3.962184208258048,-2.184010793203125,4.999999900000001,0.5625,8,12,266.1334109016866,635.016445,mp-1216113,Y4MnS7,https://materialsproject.org/materials/mp-1216113,17.296525682848348,5.497803264036313,-3.179249529778061,-16.263441026494956
-4.076363279285714,-57.06908591,4.1846371235429904,-1.0345794012261906,0.0,1.2830000000000001,8,14,345.1158470675923,869.7083,mp-1223488,KIn5S8,https://materialsproject.org/materials/mp-1223488,-0.3277338563697973,-2.889130117304907,-29.544727240556497,-36.77970717715221
-2.857006965714286,-39.99809752,3.7658694455701984,-1.0967332865028574,6e-07,0.0,123,14,382.95181382103567,868.48095712,mp-1147764,Na2Cu(ICl)2,https://materialsproject.org/materials/mp-1147764,-2.2079563303991385,0.9959630947284064,-29.58626738383276,-34.034072889076576
-4.284749709166666,-51.41699651,5.329004268103563,-1.4156202261646909,4e-07,2.4693,63,12,374.0025575043049,1200.2495438,mp-505712,CsHoZnSe3,https://materialsproject.org/materials/mp-505712,10.14443363041401,0.7229074242990409,-2.9215787515874463,-19.97073381584529
-7.134341255,-85.61209506,4.0329932952752605,-2.1545770707031253,3.8116068,0.0,8,12,260.24947392501014,632.0745,mp-1216124,Y4CrS7,https://materialsproject.org/materials/mp-1216124,17.333573632739107,5.514497019048823,-3.171408646065536,-16.331701713254454
-3.443787085862069,-99.86982549,3.329958125642003,-0.800072318709655,0.0,2.4049,1,29,745.3176666171097,1494.6210599999995,mp-1217500,Te3H9Br13O4,https://materialsproject.org/materials/mp-1217500,-1.658010705202526,4.466442619135623,-32.33422603628572,-32.43868837345335
-3.91473789,-31.31790312,4.268602180743411,-0.8011616216666666,0.2216676,0.0,193,8,333.44615986691105,857.1608200000002,mp-23223,TiI3,https://materialsproject.org/materials/mp-23223,-7.700343991280462,-16.045306397374265,-34.00726789961638,-13.246535610523116
-3.2941342682142856,-92.23575951,4.786173474233282,-0.5822504349876846,5e-08,0.5657999999999999,62,28,1178.0183668541067,3395.4036151999994,mp-662549,Cs2GeTe4,https://materialsproject.org/materials/mp-662549,-6.489781709640843,-13.075603401286314,-27.727293916441003,-55.81213162463519
-3.4785988259803924,-354.81708025,5.2540179217843175,-0.32462467039215703,0.0,0.8614000000000006,152,102,3438.0967444870957,10878.288,mp-531948,Ga6SnTe10,https://materialsproject.org/materials/mp-531948,17.21767064323718,12.56100239376585,-13.295214193412335,-13.875211789661286
-2.7281213855555557,-49.10618494,3.396983821787007,-1.0462133351111111,0.00011909999999999998,2.3386,14,18,669.9093177980798,1370.4412,mp-22963,K2TeBr6,https://materialsproject.org/materials/mp-22963,0.19388637842209952,-0.3626756316032286,-23.971979079688282,-72.75567467917462
-6.43230278375,-154.37526681,6.386433251741813,-2.3169773871614585,4.890352200000001,0.0,8,24,522.4074394987969,2009.179045,mp-1225712,Er9MnS14,https://materialsproject.org/materials/mp-1225712,11.567336437723055,-2.672104669297958,-5.303963214214595,-17.04488053975894
-6.4851895325000015,-77.82227439,6.042158149827488,-2.1785375498697923,5.0000206,0.6382999999999996,8,12,260.65247165656893,948.429045,mp-1225601,Er4MnS7,https://materialsproject.org/materials/mp-1225601,11.605467574027283,-2.4262478475544205,-5.661660273415303,-17.322071468965618
-4.280674580833334,-51.36809497,5.39331189963612,-1.4133201961646915,0.0,2.49,63,12,370.97705279392716,1204.9069037999998,mp-7155,CsErZnSe3,https://materialsproject.org/materials/mp-7155,10.134018228987609,0.7223923295965496,-2.867325056963211,-20.013619170770337
-4.110609175,-115.09705690000001,4.3828297672988175,-0.9539315415297622,9.990000000000002e-05,0.0,115,28,662.178738706372,1747.75576928,mp-1220947,NaIn10CuS16,https://materialsproject.org/materials/mp-1220947,10.545104461816518,13.123906863143485,-20.805662310423717,-76.08244026635758
-6.472603055833333,-77.67123667,5.97300812755983,-2.422017340703125,1.1972833999999999,0.0,8,12,282.0580046724478,1014.571,mp-1226713,CeDy4S7,https://materialsproject.org/materials/mp-1226713,10.205183706433766,-3.1696612014419605,-4.863948001731858,-15.822340805369704
-6.32182374,-240.22930212,6.7775060451654685,-2.4305590002467112,0.0,0.0,63,38,835.0776276133818,3408.37736,mp-18680,Tm8S11,https://materialsproject.org/materials/mp-18680,11.529636126455419,-2.805356807016229,-5.106589325840719,-16.986538451227098
-4.60193819,-23.00969095,4.830180337695258,-0.7952354428663796,2.9904778,0.0,119,5,109.84404472202938,319.51464689999995,mp-1228841,CsCoCuS2,https://materialsproject.org/materials/mp-1228841,-7.944616602862452,8.817580295364197,23.971520500921837,-40.8663486022253
-7.0577720485714295,-296.42642604,3.900296632228065,-2.983711081607144,0.99999985,0.5196999999999999,173,42,680.2725511162582,1597.8334000000002,mp-1218652,Sr5V3O13,https://materialsproject.org/materials/mp-1218652,-22.776160738047015,-33.20841963594556,-7.2755898653653155,-26.3324211015642
-7.0256935346875,-224.82219311,2.953873795198552,-3.3422184657291067,0.0,6.1046,14,32,366.6607674655082,652.2397887999999,mp-6899,CaBePO4F,https://materialsproject.org/materials/mp-6899,-53.91821769159896,16.885962582456074,-8.511979212727088,-20.90481378492389
-4.693702644259258,-253.45994279,4.617306789788844,-1.1928628302845627,0.00693665,0.6467999999999998,15,54,1687.8239013610541,4693.1752714,mp-1213734,Cs3Nb6SBr17,https://materialsproject.org/materials/mp-1213734,7.428518525710222,1.1492068113879443,-1.5707766632851652,-22.340718980371808
-6.0248891817857135,-168.69689709,5.193526924061956,-2.4796998276785716,3.365e-05,1.5597,62,28,647.4024569424638,2024.8256800000001,mp-1194132,Ca(TmS2)2,https://materialsproject.org/materials/mp-1194132,12.627985888898136,6.380333862338571,-7.1386612333839174,-16.680546011881713
-4.4607003160000005,-89.21400632,4.6009293663497335,-1.1028638556562498,0.000880975,0.0,12,20,594.1291289668134,1646.18,mp-1237966,SmMgSe3,https://materialsproject.org/materials/mp-1237966,11.741865791468935,2.1007356418614846,-11.536933641052975,-8.888327854253385
-6.022917677142857,-168.64169496,5.6494907444076485,-2.5095655137500006,0.0,1.8476,62,28,665.2325166183259,2263.2560000000008,mp-1192751,Sr(LuS2)2,https://materialsproject.org/materials/mp-1192751,9.476290475915876,-2.020800781012273,-7.718820523475615,-13.752068061571295
-3.7401781725,-44.88213807,4.309229432734603,-0.6665849938541673,3.7225e-05,1.8037,33,12,360.2649943230008,934.916,mp-1103194,SbSBr,https://materialsproject.org/materials/mp-1103194,17.036377912979912,2.1189499935457574,-0.9861658606826554,-16.543216280037793
-6.3265690025,-75.91882803,6.722106343213719,-2.439750577369792,1.9e-06,0.0,8,12,264.1025675677187,1069.12605,mp-1216618,Tm5S7,https://materialsproject.org/materials/mp-1216618,11.496981195948775,-2.807339954565629,-5.1037602306587155,-16.86668911663839
-3.525068674,-17.62534337,7.776939352281572,-0.1549958799999999,2e-07,0.0,139,5,125.26743431114772,586.6753,mp-569204,Tl(CuTe)2,https://materialsproject.org/materials/mp-569204,19.166122886629864,-37.4577636846029,19.847612193557122,-40.83100202654556
-3.873418898571429,-54.22786458,4.197486004251776,-0.9369995435119048,1.15e-06,0.2582,164,14,336.4304850861998,850.424,mp-630773,CdInGaS4,https://materialsproject.org/materials/mp-630773,-1.7847193633320255,9.450563844953843,-14.404975222051394,-70.97896934608512
-6.049890964285715,-169.39694699999998,5.1084690954260425,-2.479206488750001,8.775e-06,1.5650999999999995,62,28,653.8256404415816,2011.424,mp-1194059,Ca(ErS2)2,https://materialsproject.org/materials/mp-1194059,12.620837309480779,6.358547773961741,-7.190853672419645,-16.614584132496404
-4.5486726738888885,-81.87610813,3.793190459552256,-1.276982275771074,0.00022775,1.6023,132,18,492.75127159487437,1125.598,mp-1209316,Rb2Ti(AgS2)2,https://materialsproject.org/materials/mp-1209316,-1.8202924107507852,-2.5639636058642017,-26.406148591247234,-33.494467398358246
-6.330750229666666,-189.92250689,6.2478361951356005,-2.460827800104168,2.333333333333333e-07,1.4613,11,30,692.1877260230635,2604.3805199999997,mp-1193944,Tm2S3,https://materialsproject.org/materials/mp-1193944,9.27524204691039,-3.1352631627226013,-6.445539471658178,-14.674237207639035
-6.52187892642857,-182.61260994,2.8764470350450133,-1.9264417548928572,2.000000075,0.0,54,28,586.552721085806,1016.04828,mp-669435,KLaCO4,https://materialsproject.org/materials/mp-669435,-3.0399430501535987,-2.5665117649442912,-28.905588517176472,-33.43777374909215
-2.946376221388889,-106.06954397,4.37588309053592,-0.8438351819861111,1.15e-06,1.4015,62,36,1109.9946634236674,2925.0784,mp-1198419,K2Cd3Se4,https://materialsproject.org/materials/mp-1198419,10.419362858977564,2.3869322636158303,0.8175501521791493,-17.119354452762888
-3.724009797638889,-268.12870543,4.545040124732068,-0.6554580390740752,0.0,0.0,205,72,2052.8392493569067,5618.8,mp-22846,In5S4,https://materialsproject.org/materials/mp-22846,14.697208949205413,12.593005023128047,-10.270667289943383,-14.74566790038175