energy_per_atom,energy,density,formation_energy_per_atom,total_magnetization,band_gap,sgr,num_sites,cell_volume,weight,mp_id,formula,URL,tsne_cry_0,tsne_cry_1,tsne_xrd_0,tsne_xrd_1
-7.934581248000001,-79.34581248,4.96450303183938,-2.349250589249999,0.0,2.4343,167,10,101.67623679009229,303.9808,mp-19399,Cr2O3,https://materialsproject.org/materials/mp-19399,12.025499007962374,54.855162041705704,10.622453613349009,41.01223431447154
-7.2377127916666675,-43.42627675,3.454773532009555,-1.8788680441666668,1.99999945,0.3519,63,6,80.7444015178418,167.9898,mvc-6931,CrO2,https://materialsproject.org/materials/mvc-6931,7.83251851646284,69.78153648290508,13.810228007522175,83.92101916693622
-5.8653702125,-140.7688851,4.120182652459498,-1.917971375705,17.9999998,0.7246000000000001,2,24,212.49744832758972,527.2554749999998,mp-1174533,Li7Mn2(CoO4)3,https://materialsproject.org/materials/mp-1174533,8.289946362848994,89.99817596753587,-1.3858693288767687,96.5565838824508
-8.153614330833333,-97.84337197,11.395905539564035,-0.2143731175000004,1.5e-07,0.0,38,12,157.22779196877622,1079.0189344,mp-1229047,AlCoW,https://materialsproject.org/materials/mp-1229047,69.26497288714687,50.66683177052521,71.92908446824444,18.97467687901543
-10.391751844166668,-124.70102213,16.016649237190506,-0.29258225988095177,0.0,0.0,62,12,167.28620753056478,1613.551048,mp-1637,Re2P,https://materialsproject.org/materials/mp-1637,60.33577193170047,32.728356729408844,71.8355049348835,12.235485026124431
-7.44445934125,-59.55567473,5.654646716209045,-0.0770497062500004,0.00028015,0.0,194,8,118.81122398344276,404.5888,mp-1187671,Ti3Ni,https://materialsproject.org/materials/mp-1187671,59.69012809671468,55.89913988573717,83.18630686235721,19.0030837538972
-7.363344515555554,-198.81030192,3.533218496049489,-3.411196003703704,4e-07,4.409599999999998,160,27,258.5406018618584,550.1107860000001,mp-757911,MgAl10O16,https://materialsproject.org/materials/mp-757911,3.1734087408610594,62.14553528025606,8.283809510208691,52.39901554805125
-2.8261679460000004,-14.13083973,1.5386204461404829,-0.1821430839999998,1e-07,0.2427000000000001,166,5,80.71204379908208,74.7860772,mp-16506,Li3Al2,https://materialsproject.org/materials/mp-16506,36.2137327721365,38.12971712422925,48.82996876287041,0.4945997055459023
-8.93578436,-107.22941232,4.127532659957243,-3.485798448055556,3.7975e-05,1.8200000000000005,74,12,128.5225724776756,319.4632,mp-1097860,TiO2,https://materialsproject.org/materials/mp-1097860,-13.520053751180628,88.162005998448,-15.570692790442061,87.63022623696364
-5.753584686,-28.76792343,3.80904171942171,-1.499988885042001,1.9999968000000001,0.0,221,5,61.919486415324485,142.034545,mp-1184948,KMnO3,https://materialsproject.org/materials/mp-1184948,-12.835423153604472,52.63624522151715,51.20833594452408,-67.07712203990377
-4.972957145,-19.89182858,10.212002054166996,-0.3774883812499992,1e-07,0.0,187,4,88.3897663544335,543.5804,mp-1227298,BiSbPd2,https://materialsproject.org/materials/mp-1227298,48.23776004792402,20.140261503307475,74.6882649563755,16.065384515941037
-5.850413715714287,-327.62316808,2.3793689090113777,-2.1151910388728576,5e-07,5.6644,1,56,435.5035617172833,624.0284687999998,mp-626496,Al(HO)3,https://materialsproject.org/materials/mp-626496,-9.849558940005732,77.68450586121376,-27.662511743173056,75.82871135347365
-5.163060602,-51.63060602,2.5251993772634687,-3.363528408714,0.0,6.5055999999999985,225,10,106.39430942407556,161.79495780000002,mp-1111291,Li3AlF6,https://materialsproject.org/materials/mp-1111291,-25.496673736621226,61.91144887730466,-41.606700464501664,65.52090105269427
-6.378955032647059,-867.53788444,8.742559100028574,-0.4783656116666664,0.000970725,0.0,61,136,1482.2821910696473,7804.056,mp-1197355,Er2(Ni2B)5,https://materialsproject.org/materials/mp-1197355,56.07718726203002,30.42345236328893,61.8914973548484,8.498014892306175
-9.581820996666666,-57.49092598,7.419446388046682,-0.04724156833333263,2.25e-05,0.0,216,6,87.75882542935011,392.11478,mp-1215217,ZrNbCr4,https://materialsproject.org/materials/mp-1215217,69.21334361040647,45.639988122353174,77.29387907866756,24.775582216512298
-6.658792020158731,-419.50389727,3.823256929848312,-1.7756614105765074,45.0011305,0.0,8,63,701.6831605386046,1615.568765,mp-758827,Li6Mn17O40,https://materialsproject.org/materials/mp-758827,-0.5063485022217044,75.97702657356348,-6.4014860767830415,91.05295201423128
-4.11227793,-8.22455586,2.7871830462105422,-2.8468357020950004,0.0,6.3559,221,2,34.6126688342397,58.0967032,mp-8454,KF,https://materialsproject.org/materials/mp-8454,97.39346193471368,0.4538268650387611,66.29468448542244,62.29665496571038
-8.4729421375,-33.89176855,10.906577283503829,-0.06968235250000099,1.9e-06,0.0,65,4,72.42370085794863,475.685709,mp-1220645,Nb3Au,https://materialsproject.org/materials/mp-1220645,65.78038874523999,23.32650713692824,53.27564275252115,25.976945013326983
-8.42940452,-67.43523616,16.812985231138793,0.38419741375,1.385e-05,0.0,194,8,117.52968464814128,1189.9899999999998,mp-1185910,MgOs3,https://materialsproject.org/materials/mp-1185910,56.279547431073745,58.35290845381055,81.75046564672594,8.861899665062339
-7.22706539,-28.90826156,9.845258880415207,-0.7287513558333334,0.000153,0.0,225,4,69.4647031173118,411.853,mp-977543,ZrInRh2,https://materialsproject.org/materials/mp-977543,100.85435966795387,6.200605278812683,67.59569587390405,60.4887850854601
-4.213648813333333,-25.28189288,10.35783260378975,-0.3629573316666666,2e-07,0.0,216,6,85.55232830636187,533.644,mp-1077750,YbCu4Pd,https://materialsproject.org/materials/mp-1077750,70.6298276651132,47.946422875593136,73.59528063611056,23.620956615662127
-5.826132834166668,-139.82718802,4.094450645721795,-1.8787339973716672,14.0000005,0.0,10,24,213.8329109440029,527.2554749999998,mp-1174892,Li7Mn2(CoO4)3,https://materialsproject.org/materials/mp-1174892,6.262088336658176,91.890400526798,0.5101297998172878,92.5964702187272
-7.178598155,-86.14317786,9.53336664249163,-0.7619610549999992,0.0,0.0,62,12,228.75868186923412,1313.3328,mp-29646,HfAs2,https://materialsproject.org/materials/mp-29646,33.33005056318923,26.255174723486967,50.99798963144696,-0.8587835977471241
-5.4569291812500005,-130.96630035,4.148348299233613,-1.696397408541667,17.9998044,0.4415,10,24,214.25310539781742,535.245775,mp-1174242,Li7Co5O12,https://materialsproject.org/materials/mp-1174242,12.603972819763866,86.91291083923954,1.0140993860125034,92.74224967144316
-4.7531937485714275,-33.27235624,2.7269565898004733,-3.3950217286799997,0.0,6.4096,139,7,108.69196466717301,178.4952128,mp-31212,K2MgF4,https://materialsproject.org/materials/mp-31212,-12.79762068847186,51.88772963008832,-46.880911875178974,43.483144427778356
-6.8446078675,-27.37843147,6.124341987291173,-0.6041673974999995,0.0002195,0.0,225,4,70.68686547333185,260.70482400000003,mp-862311,Sc2GaRu,https://materialsproject.org/materials/mp-862311,94.10422716136878,-0.4364406778982936,70.38993930224242,54.69353171597372
-4.490512296666666,-26.94307378,2.6841840185389074,-0.8323086084642851,2.725e-05,0.0,74,6,86.5634978383604,139.92586255999998,mp-1077413,NaPO,https://materialsproject.org/materials/mp-1077413,23.870108192566466,49.861177789965076,12.18641062026866,44.86112024488598
-3.51866653,-14.07466612,12.409638282940554,-0.146504549166667,1.93e-05,0.0,225,4,69.75513651930628,521.2982000000002,mp-861501,AgHgPd2,https://materialsproject.org/materials/mp-861501,95.9645328557719,5.22340960956083,65.03812320915857,65.08283656141076
-8.11869996125,-64.94959969,3.369885492102595,0.15178652461333364,0.0,0.7233999999999998,8,8,48.131743596939366,97.6782,mp-1079201,BC2N,https://materialsproject.org/materials/mp-1079201,32.00703158666934,64.44463622645759,87.65753546203754,13.540287016795174
-7.080913838571428,-297.39838122,3.473684459476663,-3.365742112142857,1.1666666666666668e-07,4.2517,156,42,408.04692619357064,853.5940631999998,mp-33335,MgAl2O4,https://materialsproject.org/materials/mp-33335,1.8344811247846808,62.641021783755576,9.672024054863412,53.80172000484885
-6.3763077863235305,-867.17785894,8.650962811068794,-0.47446535475490204,7e-07,0.04879999999999996,61,136,1490.8247920125064,7766.797119999998,mp-568440,Ho2(Ni2B)5,https://materialsproject.org/materials/mp-568440,56.07582701852176,30.420890457696252,61.87968617307032,8.494548830156452
-12.4591722,-49.8366888,18.14771626131902,0.50045392,1.0625e-05,0.0,57,4,67.28637206308447,735.36,mp-1065340,W,https://materialsproject.org/materials/mp-1065340,65.13847151244175,38.56667253021283,66.61090876604895,21.219040385609254
-6.529938691666668,-39.17963215,7.049393481290705,-0.5989339016666667,0.0,0.0,63,6,111.4206849591986,473.008,mp-2430,ZrGe2,https://materialsproject.org/materials/mp-2430,46.774257345642575,21.90905708938602,52.839419554417155,12.138900771915765
-9.4621002625,-37.84840105,8.36144016190186,0.2377118325000005,0.0948019,0.0,139,4,66.44271861029029,334.56413999999995,mp-999438,Nb3Fe,https://materialsproject.org/materials/mp-999438,53.025618589157936,26.281075006816856,70.56711828722659,8.496963481864046
-8.1261163625,-32.50446545,14.233141672998329,-0.5580992424999991,8e-07,0.0,51,4,57.40615205995609,492.051,mp-1017531,VPt,https://materialsproject.org/materials/mp-1017531,54.63782309158248,57.932605464602524,81.29998434780099,8.878969863308734
-3.4105443066666665,-81.85306336,2.4446769265751804,0.104281755833334,1.25e-07,0.0,2,24,427.03296928643687,628.6859999999998,mp-1073743,MgSi,https://materialsproject.org/materials/mp-1073743,45.66810702258418,23.972051806224943,71.82169120559024,8.524348335729535
-7.4024075408000005,-185.06018852,3.3743964270242297,-3.3673171540499998,0.0,4.0095,1,25,250.87550473162898,509.80638600000003,mp-752826,Al2O3,https://materialsproject.org/materials/mp-752826,4.571622424364317,62.23891922144179,7.565917041330564,52.23924727196896
-7.714118554,-38.57059277,11.496763782024784,-0.0036447937500000203,7.94e-05,0.0,221,5,70.52210251682979,488.2607,mp-1206413,YbRu3C,https://materialsproject.org/materials/mp-1206413,50.866713428013476,30.415785169424986,55.109663464627715,38.25232097531257
-5.354814439999998,-128.51554656,12.634202712104635,-0.5773213411111104,1.035e-05,0.0,212,24,320.66526328010104,2439.78,mp-20234,Li2BPt3,https://materialsproject.org/materials/mp-20234,39.99328763945666,40.29904637812222,57.17879138258746,-9.26184640490952
-3.828495405,-15.31398162,16.609022819348564,-0.078743695,3.96e-05,0.0,221,4,69.71672020860508,697.319707,mp-973834,PdAu3,https://materialsproject.org/materials/mp-973834,51.94753548906914,32.02986343058228,55.45607309106729,38.06989112354544
-5.16742971125,-41.33943769,2.430932840146049,-3.533489399618749,0.0,6.3243,123,8,136.7336648988483,200.1701546,mp-9486,K2AlF5,https://materialsproject.org/materials/mp-9486,-13.387314465987721,50.801830311316394,-3.2582513947758027,55.41507555474721
-7.172144358,-71.72144358,6.704809631215746,-0.14450890795199886,4.01908295,0.0,59,10,123.98077148709886,500.60098,mp-1245670,Mn2CdN2,https://materialsproject.org/materials/mp-1245670,24.933772137253367,49.82623771699735,52.71163979659221,-0.004133166063685964
-5.055859991,-50.55859991,3.8021445157571625,-3.434615833782965,1e-07,7.247999999999999,225,10,139.25311778138953,318.84855780000004,mp-1114697,Rb2LiAlF6,https://materialsproject.org/materials/mp-1114697,-16.205205720659848,-91.18106881467028,14.110472392700858,-12.729218037620564
-6.2718996375,-25.08759855,4.3891838569558566,-0.3880425899999995,0.00025810000000000004,0.0,123,4,81.4484395505705,215.28682400000002,mp-1063566,MgSc2Ru,https://materialsproject.org/materials/mp-1063566,46.159151097273494,12.837434202284255,33.694122423176864,4.652878038040684
-6.6693619360000005,-133.38723872,1.5269975967842673,-1.5483707093571433,2.125e-06,0.0,141,20,604.198948595673,555.6089440000001,mp-1209692,Sc(PO)2,https://materialsproject.org/materials/mp-1209692,37.18072048598768,39.229032908412925,-85.82963159446145,-13.510669526993425
-7.61440220375,-182.74565289,4.221647000768425,-2.2509352590088896,15.0,0.7869999999999999,8,24,264.53113317192697,672.526835,mp-771173,Ti2Mn3Cr3O16,https://materialsproject.org/materials/mp-771173,-11.420552529623306,69.52027606976715,0.9552812695692532,59.445619302379725
-4.719650962,-47.19650962,2.870468886805136,-2.087531033144,2.99999965,0.20120000000000005,140,10,151.48544570417428,261.8633156,mvc-2979,MnF4,https://materialsproject.org/materials/mvc-2979,-42.05213162565124,66.26128395145193,-36.369953380355796,62.7004751762065
-10.904185385,-43.61674154,18.026543001575607,0.0366176012499988,3.7000000000000006e-06,0.0,187,4,61.12806519233118,663.59638,mp-1220360,NbOs3,https://materialsproject.org/materials/mp-1220360,62.069871260487595,61.12343599109603,85.47318841007936,14.482126010189786
-9.01445407,-36.05781628,8.203387876684632,-0.6614297562499996,0.000883,0.0,225,4,68.48309873071747,338.319912,mp-1188014,ZrScRu2,https://materialsproject.org/materials/mp-1188014,96.20406848373436,8.009065486683246,64.44450065059418,64.81372749107548
-9.08188390625,-72.65507125,10.013677972695477,0.06722274999999911,2.57e-05,0.0,223,8,134.82737067676797,813.06,mp-30788,SnMo3,https://materialsproject.org/materials/mp-30788,66.30072194334883,25.464573189277626,66.19909088462197,22.16547055567008
-3.2547823975,-26.03825918,5.642734006790477,-0.2884418550000003,1.01e-05,0.06529999999999969,122,8,281.26390179735205,955.7724,mp-22386,InAgTe2,https://materialsproject.org/materials/mp-22386,24.95583574801059,15.923566000595622,64.845055050521,45.08596146999903
-9.046995535,-36.18798214,8.990132489705697,-0.26885514499999985,2.14e-05,0.1341000000000001,225,4,70.9186063876274,383.95223,mp-979931,YNbRu2,https://materialsproject.org/materials/mp-979931,100.76835046737577,5.203636099470711,68.47962723498222,60.64110779701706
-6.637618465,-39.82571079,8.508517854086834,-0.2698520633333341,4.9322887,0.0,216,6,83.88600661523351,429.827645,mp-5951,CeMnNi4,https://materialsproject.org/materials/mp-5951,67.00244913441969,48.61223059573946,73.77553759063956,22.751191280406807
-3.660615875,-58.56985400000001,2.882253845581852,-0.3459474291375,0.0,0.2015999999999996,129,16,129.72368320041622,225.16579,mp-642660,Mg2CoH5,https://materialsproject.org/materials/mp-642660,35.737423455149795,40.863523966506094,45.96378701758925,62.70987693915411
-5.702900547857142,-79.84060767,4.675201410509271,-1.5192402485714271,3.0,0.6021999999999998,160,14,134.11959370865176,377.60998,mp-756773,Li(CoO2)2,https://materialsproject.org/materials/mp-756773,-0.4877879898746801,70.58880267264091,4.6154789889729315,57.68660492354999
-3.3241252,-39.8895024,2.4397473869302626,0.1907008625000005,2.295e-05,0.0,1,12,213.94789733025752,314.343,mp-1073733,MgSi,https://materialsproject.org/materials/mp-1073733,45.44654009472521,23.91106287461716,71.60588114139749,8.513137352439188
-4.617598240769231,-240.11510852,3.100948346448777,-0.15184669307692314,8.1e-06,0.0,12,52,841.1323164204525,1570.7597369999999,mp-567919,Al45V7,https://materialsproject.org/materials/mp-567919,55.12541114808845,49.33967967529839,78.23597743091268,4.946929867372873
-7.214967949,-144.29935898,13.605683214856992,-0.5839504768333328,0.0,0.0,127,20,258.59476257724856,2118.8050000000007,mp-22250,Mg2SiB2Ir5,https://materialsproject.org/materials/mp-22250,53.00540727826997,20.957688254648076,69.01306735178021,12.64786782273072
-6.118769802105264,-116.25662624,3.4011375159187147,-0.6486537515284209,4.9999995,0.0,12,19,230.1068069604565,471.307735,mp-1246692,Mg8Mn3N8,https://materialsproject.org/materials/mp-1246692,18.397457128456885,52.4891153298561,1.7709890482379238,49.50131542791942
-5.48764602875,-43.90116823,4.29799044024237,-1.2555056827800009,3.9999959,0.0,194,8,71.04243414461995,183.87987,mp-743839,CoHO2,https://materialsproject.org/materials/mp-743839,-19.171254179677007,62.82950043142318,10.345018666103595,69.0138658002067
-6.9226994425,-27.69079777,4.975173200631804,-0.3109320487499998,2.5775222999999996,0.0,225,4,72.59052171954994,217.489869,mp-999258,Sc2MnGe,https://materialsproject.org/materials/mp-999258,97.4645065708863,0.5815793209091075,73.51886338712545,55.0148720104311
-5.273619435714286,-36.91533605,7.065570356306182,0.3243751389800004,3.18e-05,0.0,221,7,71.06512230254623,302.3811,mp-1232314,Ga(CuN)3,https://materialsproject.org/materials/mp-1232314,29.045693431020993,60.98228118140276,56.2165898347787,44.00497226491807
-4.07978016,-16.31912064,9.683089492546053,-0.2307408211250004,5e-07,0.0,225,4,75.974535641537,443.02976928,mp-981933,NaPd2Pb,https://materialsproject.org/materials/mp-981933,87.66335970358526,-2.9339039198684027,68.06575137027546,45.720164353421495
-3.75146321,-7.50292642,8.522484884432302,1.6391096704766674,7e-07,0.0,221,2,23.746364140319237,121.8749,mvc-11196,AgN,https://materialsproject.org/materials/mvc-11196,35.480409270654846,50.16246325622871,53.429950035960395,47.572153707529495
-5.892461040892857,-329.97781829,5.1932341010300425,-1.7879898930357143,0.0,0.7363999999999997,212,56,563.3194744673847,1761.74714,mp-757613,Li2Co3SbO8,https://materialsproject.org/materials/mp-757613,1.6650639533844138,67.73020823061934,18.187982770534802,82.78478022729732
-7.516723709999999,-150.3344742,10.073572863678251,-0.25901989299999995,4.0301775,0.0,8,20,232.66038421834546,1411.422,mp-1225537,Fe(BRh2)3,https://materialsproject.org/materials/mp-1225537,61.14726105832468,40.14283352192192,73.10474377763224,10.538937214507074
-4.66429587,-37.31436696,15.284403541263494,0.06072168749999918,2.6098258999999997,0.0,194,8,139.4627377937073,1283.682414,mp-1187741,VAu3,https://materialsproject.org/materials/mp-1187741,51.025405946938896,34.25579213744382,55.11461385292703,34.61120360621694
-7.392667122500002,-147.85334245,10.446619526857507,-0.2462526005000001,8.675e-05,0.0,186,20,239.31310233625013,1505.543,mp-1106065,B3Rh7,https://materialsproject.org/materials/mp-1106065,61.29253936702862,40.069914576563725,73.20335668545255,10.263817828265523
-11.185613143333333,-33.55683943,12.686514165250678,-0.045833332499997916,6e-07,0.0,42,3,49.090772410898026,375.05338,mp-1220357,NbReMo,https://materialsproject.org/materials/mp-1220357,67.09800952806782,27.652915914990622,62.75105695739207,61.62366326312488
-7.642896480555557,-137.57213665,4.378003986518183,-2.5154326318022213,7.0000004,0.0,38,18,189.8887258418681,500.6408032,mp-759689,V6O11F,https://materialsproject.org/materials/mp-759689,-13.697968085232391,87.93795296467613,-15.771708480128444,86.54741182053766
-7.087442335535713,-396.89677079,3.471115576172694,-3.3722706091071433,6.25e-08,4.2657,160,56,544.4652149626598,1138.1254176,mp-33302,MgAl2O4,https://materialsproject.org/materials/mp-33302,1.811831890828838,62.64967000710303,9.682174538241394,53.80815617249267
-7.076437559183674,-693.4908807999999,3.4683480733677805,-3.3612658327551035,6.307142857142857e-06,3.377600000000001,8,98,953.5744062116294,1991.7194808,mp-531340,MgAl2O4,https://materialsproject.org/materials/mp-531340,1.82357312993817,62.648298533233024,9.661718333528704,53.7931284003057
-6.176720101538462,-80.29736132,4.2352731372827765,-1.690337026923076,11.9999995,0.0,166,13,147.29431100050357,375.6802,mvc-11658,Mg(FeO2)4,https://materialsproject.org/materials/mvc-11658,12.428406031771411,74.79512099271345,19.77957808492284,79.2776760260684
-7.098269560816328,-695.63041696,3.4657087595050724,-3.3830978343877565,7.142857142857142e-08,4.326599999999999,8,98,954.300601724318,1991.7194808,mp-531840,MgAl2O4,https://materialsproject.org/materials/mp-531840,1.7868338872052971,62.65959391295611,9.684946761075468,53.814824229660104
-5.4948698115625,-175.83583397,4.271962359164856,-1.69967114625,23.5521842,0.0,2,32,284.1411654990107,730.991765,mp-1175440,Li9Co7O16,https://materialsproject.org/materials/mp-1175440,4.972276685194707,98.07756588233332,2.844075652092032,87.64861889496756