energy_per_atom,energy,density,formation_energy_per_atom,total_magnetization,band_gap,sgr,num_sites,cell_volume,weight,mp_id,formula,URL,tsne_cry_0,tsne_cry_1,tsne_xrd_0,tsne_xrd_1
-5.302975618571429,-37.12082933,5.9979876211794565,-0.4556408611161911,2.1000000000000002e-06,0.0,139,7,57.08239589609958,206.18576,mp-980193,Ti2H4Pd,https://materialsproject.org/materials/mp-980193,46.49709091707172,32.52845660294585,52.157173336036145,36.07227290609769
-6.442989935,-25.77195974,11.045360048105358,-0.8700010137499996,1.06e-05,0.0,225,4,66.56868222823063,442.793,mp-863711,ErGaRh2,https://materialsproject.org/materials/mp-863711,95.8638584467397,9.393855493815737,62.01509405596196,65.05389946925287
-6.222426559166667,-298.67647484,3.651243925449912,-2.214719499455001,4.999996825,1.0501,1,48,419.6677144656484,922.77818,mp-768620,Li4MnCrO6,https://materialsproject.org/materials/mp-768620,-11.10803892820774,99.80575424066204,-12.42984582525944,97.98671962233676
-1.2941636566666668,-7.76498194,5.9903683539262245,0.03391452416666674,0.0001985,0.0,187,6,97.39474390111693,351.35,mp-1094428,MgZn5,https://materialsproject.org/materials/mp-1094428,59.46787208957619,52.215015168104564,82.96421347419252,17.98544440350584
-4.778736904615385,-124.24715952,6.1488716596356605,-0.8348565031730769,2e-07,0.0,2,26,250.69623612983884,928.3124,mp-766450,Ni6O7,https://materialsproject.org/materials/mp-766450,28.684985901067506,60.13122153113174,30.005785733817444,77.20340132490827
-5.198049703333333,-31.18829822,14.572223235845867,0.010766496666666587,1.91011255,0.0,63,6,101.38901831913735,889.749276,mp-30423,VAu2,https://materialsproject.org/materials/mp-30423,62.84790671172305,21.884767617423872,70.39878028299886,20.873253460004
-2.725771365,-10.90308546,9.27643258435073,-0.36164234,6.759999999999999e-05,0.0,216,4,74.32908317469601,415.231869,mp-30406,Li2TlAu,https://materialsproject.org/materials/mp-30406,85.97032346301286,-2.927366840846142,66.35850475962772,44.3546232812336
-6.01286124875,-48.10288999,5.7184583346903874,-0.3037533622266668,2.8999999999999998e-06,0.0,26,8,61.40300832180172,211.45576,mp-1079106,TiFeH2,https://materialsproject.org/materials/mp-1079106,32.056993257763594,57.51176286054882,83.3963574646328,18.831526628789504
-5.792410738125,-185.35714362,4.2371344582654915,-1.857061774747499,22.000000699999998,0.24170000000000025,12,32,283.34530575674927,723.001465,mp-1176287,Li9Mn2Co5O16,https://materialsproject.org/materials/mp-1176287,5.607032211553352,95.50175160792007,2.9274838962905254,90.15751361921544
-5.51584223892857,-154.44358269,4.130923086982122,-1.4135492431428571,3.000027825,0.5869000000000002,59,28,329.3865875616816,819.41503712,mp-22474,Na(CoO2)2,https://materialsproject.org/materials/mp-22474,7.594717344850165,73.56231571501131,9.163751082862644,71.02183758263598
-7.2316245075,-173.55898818,4.3397706633334145,-1.8909428538699988,18.9999992,0.0,8,24,260.4907531212588,680.785035,mp-756938,Mn3Cr5O16,https://materialsproject.org/materials/mp-756938,-11.260459388560973,69.60651794089584,1.0836646480152263,59.31854217658242
-5.101198465,-20.40479386,10.650024671895254,-0.4599248400000011,2.2100000000000002e-05,0.0,221,4,60.649761601103705,388.983,mp-1184209,GaPd3,https://materialsproject.org/materials/mp-1184209,59.788821402066795,56.65092190197838,85.14289566844198,15.475004812411974
-6.054544465,-24.21817786,8.715680378096133,-0.8799898649999998,1e-07,0.0,225,4,71.7330992584396,376.505912,mp-4897,ScSnPd2,https://materialsproject.org/materials/mp-4897,94.92834860117178,2.2782705017605585,71.5881393359096,55.23443613021437
-6.4204620625,-25.68184825,4.1547456774359235,-0.30232729916666656,0.0009664999999999999,0.0,123,4,61.058651440617886,152.7715772,mp-1217015,TiAl2V,https://materialsproject.org/materials/mp-1217015,58.080168373999406,55.55323867400065,81.09907583652998,14.810676655529628
-4.964930705384616,-64.54409917,4.410087717422949,-1.122438335384616,2.0000001,0.37319999999999975,166,13,169.58578456933347,450.3888,mp-18898,Sr(NiO2)4,https://materialsproject.org/materials/mp-18898,-1.5098730005020389,70.70958506493783,-0.051499528362647914,57.018617479572036
-6.8179636325,-27.27185453,4.918979348265099,-0.12970076249999973,0.0002064,0.0,225,4,66.47720527461159,196.924006,mp-862563,Sc2BeTc,https://materialsproject.org/materials/mp-862563,35.73693170738951,37.830067629099226,46.42799792416332,62.526260440455026
-5.582359303888889,-301.44740241,4.3794091924568335,-1.4376743394444438,10.99999985,0.4103999999999999,4,54,528.0216145635728,1392.5735300000001,mp-771197,Li4Co7O16,https://materialsproject.org/materials/mp-771197,-0.4644429638099527,70.8206023094216,4.267241317874482,57.839617612795394
-5.5236045134375,-176.75534443,4.266929878912744,-1.728405848125,22.000000399999998,0.6409000000000002,2,32,284.4762857950467,730.991765,mp-1175429,Li9Co7O16,https://materialsproject.org/materials/mp-1175429,9.855263026380731,86.91032618530295,8.212537909725809,96.2899921092403
-4.513334265,-18.05333706,10.53837465914942,-0.3115210962500008,0.006684300000000001,0.0,221,4,60.612562433732606,384.66900000000004,mp-1187913,ZnPd3,https://materialsproject.org/materials/mp-1187913,59.69261148341875,56.67814558537822,85.16056662252393,15.493055516664937
-4.6894118825,-18.75764753,12.707955297727963,-0.21406812750000093,0.0005136,0.0,139,4,68.4240794299846,523.6433,mp-571030,TlPd3,https://materialsproject.org/materials/mp-571030,63.74953325049727,54.238727970975454,56.33735800760521,35.70493914809256
-9.8915892225,-39.56635689,13.319128434599184,0.02178940249999961,3.35e-05,0.0,187,4,60.36153680860792,484.15788,mp-1217912,TaRu3,https://materialsproject.org/materials/mp-1217912,62.93463956027757,60.38196053797079,85.37382406120413,15.001646282513521
-6.592578150909091,-145.03671932,3.9583603762127595,-2.0336076929545457,4.000001,0.33009999999999984,64,22,226.29232355318572,539.4312,mp-754946,Li2Cr2FeO6,https://materialsproject.org/materials/mp-754946,10.80822783098436,73.13757513484717,12.927213281940295,73.27611931076969
-6.229077944027778,-448.49361197,3.645768176590794,-2.219352762775,29.0016609,1.0202,1,72,629.1070808961701,1381.225325,mp-778112,Li24Mn5Cr7O36,https://materialsproject.org/materials/mp-778112,-11.105304755950108,99.79565826832926,-12.442033057697316,97.89682430606022
-5.7996958828125,-185.59026825,4.2610684040162585,-1.8643469194349995,16.0000002,0.4510999999999998,1,32,281.7537867916172,723.001465,mp-1175547,Li9Mn2Co5O16,https://materialsproject.org/materials/mp-1175547,18.852837474744753,88.79062045128242,10.589894331892971,90.66513208960896
-9.021081238125,-144.33729981,5.347213471208367,-0.9556055884816654,1.363150875,0.0,62,16,163.6255372540315,526.9015999999998,mp-1245552,TiFeN2,https://materialsproject.org/materials/mp-1245552,23.03699350202076,53.84067028839139,10.779264341537406,46.3685292531746
-6.500515466666666,-39.0030928,10.476233869226764,-0.2380488416666668,1.8761261000000002,0.0,227,6,90.38779532804969,570.25078,mp-537,ErCo2,https://materialsproject.org/materials/mp-537,80.19198426447475,29.337791107206424,71.2015185589799,26.46296298563497
-5.17334029875,-82.77344478,4.521127091401882,-1.547539521250001,4.0000004,0.0,2,16,142.3903969926581,387.6844,mp-765712,Li4FeNi3O8,https://materialsproject.org/materials/mp-765712,14.224732452934004,80.14042286057257,23.00834862558484,83.80406501968865
-5.140525965,-30.84315579,10.436933800206473,-0.3653157608333337,2e-06,0.0,216,6,83.77105862873705,526.5236,mp-1207519,YbNi4Sn,https://materialsproject.org/materials/mp-1207519,70.67871299390436,48.70172851758005,73.31810745750418,23.080348527622824
-6.221759107916667,-149.32221859,3.6685027006031037,-2.2140520482049997,5.00002455,1.0036999999999998,5,24,208.846676451708,461.38909,mp-1177331,Li4MnCrO6,https://materialsproject.org/materials/mp-1177331,-11.035136893210405,99.43077550517576,-12.439106233510909,97.9926795169566
-6.40604703,-38.43628218,11.65754378272964,-0.21300028305555568,0.28779190000000004,0.0,216,6,83.70260629046784,587.62051,mp-672702,UInNi4,https://materialsproject.org/materials/mp-672702,71.77972124385299,49.70300728068487,71.4947512223237,22.61131019901083
-1.69429414,-13.55435312,4.9329619212644005,-0.23817907874999975,1.15e-05,0.0,160,8,144.88373870663264,430.406,mp-1222443,Li4ZnCd3,https://materialsproject.org/materials/mp-1222443,85.61196581086162,-0.1550744587859799,42.281550226620006,55.127201067674314
-7.419984972000001,-37.09992486,8.298259158150971,-0.451159747666668,1.1094363999999999,0.0,139,5,60.146335548172026,300.57099999999997,mp-3190,Er(FeB)2,https://materialsproject.org/materials/mp-3190,55.772291412640286,25.324631129056467,48.91674784291754,-1.8271091960640455
-5.972847235,-23.89138894,14.062149620098447,0.12671594999999947,1.4499999999999998e-05,0.0,139,4,60.39812898507145,511.477,mp-1184784,IrPd3,https://materialsproject.org/materials/mp-1184784,59.609990712359426,57.483417355029104,82.45104260419288,13.21852037298636
-8.293464175833334,-99.52157011,12.730857611340447,-0.2815365174999999,0.00243545,0.0,194,12,158.71710223586624,1216.83669,mp-1218121,Ta2GaCo3,https://materialsproject.org/materials/mp-1218121,69.92063531262656,49.986097705144616,72.50901311459643,19.309821583714992
-4.26676367,-8.53352734,5.536589100551218,-0.21064086179687447,0.0,0.058300000000000025,225,2,45.46801539578532,151.6,mp-10759,GeSe,https://materialsproject.org/materials/mp-10759,24.84574068726993,7.549736178813674,58.553948735718095,-28.76710713460789
-6.228738608194443,-448.46917979,3.646392060335092,-2.2190134269416664,29.0009906,1.0371,1,72,628.9994430791994,1381.225325,mp-768924,Li24Mn5Cr7O36,https://materialsproject.org/materials/mp-768924,-11.086199116053896,99.69832394144964,-12.472531343421421,97.7703271878179
-3.765766458333333,-22.59459875,8.205938351106884,-0.34470679499999984,1e-07,0.0,191,6,126.28459871895106,624.0646,mp-1218349,SrAg3Pd2,https://materialsproject.org/materials/mp-1218349,46.45124363072046,13.56431215837548,50.274617829800434,4.90532744990836
-5.43325411,-54.33254109999999,6.382989837778744,-0.4560019786666672,5.5e-07,0.0,83,10,158.64143537139375,609.8059999999998,mp-30673,Ti2Ga3,https://materialsproject.org/materials/mp-30673,58.6278280149486,49.09398273323271,82.01531759547933,17.60111849211037
-4.21403023,-33.71224184,4.8579456159892205,0.5621260370833339,2.5e-07,0.0,194,8,131.3438190202234,384.2494,mp-978806,Si3Ag,https://materialsproject.org/materials/mp-978806,47.114791324948385,37.042140301150276,56.849528187597286,32.473248899807714
-5.68455837,-22.73823348,17.205950140808756,0.3672234056899999,0.0352325,0.0,186,4,37.29611602333468,386.44988,mp-1184680,HIr,https://materialsproject.org/materials/mp-1184680,101.92922625495544,6.802354120338338,66.54505631542439,20.879114556351226
-6.735132337285714,-471.45926361,4.385101938060924,-2.7328289651428563,1.99994659,3.1328000000000005,8,70,668.9490823912024,1766.5407719999996,mp-532317,Al2NiO4,https://materialsproject.org/materials/mp-532317,1.5344011678745673,65.04623457968657,10.706158035962225,53.0115899896953
-5.480782724166668,-131.53878538,4.175131338565752,-1.7202509514583335,15.9999997,0.0,2,24,212.87869370065772,535.245775,mp-1174246,Li7Co5O12,https://materialsproject.org/materials/mp-1174246,9.587571996971716,86.75942977369803,6.494443973357884,97.03304497308349
-6.109222971666667,-36.65533783,10.016200539327356,-0.16422064388888913,4.3661441,0.0,216,6,86.12298677547638,519.4849899999998,mp-1207201,TmInCo4,https://materialsproject.org/materials/mp-1207201,70.76522351974859,48.00089311620214,73.51442321753088,23.778204133283463
-5.7858924209375,-185.14855747,4.210518453797532,-1.8505434575599988,24.780721399999997,0.0,1,32,285.1364200831085,723.001465,mp-1175844,Li9Mn2Co5O16,https://materialsproject.org/materials/mp-1175844,12.734825323170137,86.82515218553159,7.90250264431435,95.56842002518937
-11.661128976666667,-34.98338693,14.463677236298174,-0.0183881666666655,2.3e-06,0.0,42,3,52.54674690932394,457.69426,mp-1217901,TaNbW,https://materialsproject.org/materials/mp-1217901,66.95463061443,26.965875276608216,64.98303784396212,62.96234997928782
-5.7773739046875,-184.87596495,4.236922180604541,-1.8420249413099992,20.0000005,0.0,2,32,283.3595018821873,723.001465,mp-1175554,Li9Mn2Co5O16,https://materialsproject.org/materials/mp-1175554,15.61809365444001,89.78254883849267,7.419528390233508,91.62998413646628
-4.253680537692308,-55.29784699,2.9803108779857475,-0.08933535153846114,0.0009474,0.0,204,13,211.0093787878955,378.7165082,mp-1104165,MnAl12,https://materialsproject.org/materials/mp-1104165,57.93052761472542,52.194888228138275,78.4797906540811,5.188735606548146
-7.99168315375,-63.93346523,6.784971909165671,0.7253267115624995,9.4e-06,0.0,194,8,139.83470609856718,571.3654,mp-1188023,Zr3C,https://materialsproject.org/materials/mp-1188023,47.62098055882966,35.419980405893966,54.71853084742817,33.08367510206877
-8.70512194875,-69.64097559,13.467777746720882,-0.3246972624999991,5.9e-06,0.0,47,8,121.36952397490042,984.36576,mp-1217768,Ta2(PdRu)3,https://materialsproject.org/materials/mp-1217768,59.896353914846856,57.25161090102622,82.34212398778611,14.02919410364064
-8.819488881666668,-52.91693329,5.0858143367019,-0.30560613658666586,2.1004842,0.0,58,6,52.246853512563604,160.019,mp-1080200,CrN2,https://materialsproject.org/materials/mp-1080200,12.501682181954305,55.43533193486775,41.20780715799866,27.7610506817274
-5.492200422142856,-153.78161182,4.540240108041099,-1.4297081225000008,18.0000634,0.0,8,28,272.5612359611461,745.23599,mp-753758,Li4Fe3Co2Ni3O16,https://materialsproject.org/materials/mp-753758,-2.890523758017666,72.29900223685156,2.562341386735252,60.880529711756104
-8.486452586666667,-50.91871552,3.120088491467154,-1.1709531961899995,1e-07,1.0877999999999997,44,6,39.62460665366852,74.4531,mp-1077506,BN,https://materialsproject.org/materials/mp-1077506,31.900549759239773,64.28540260926903,80.751332872396,9.529718863774846
-5.045796606428572,-141.28230498,5.346052250540689,-1.3688667942857151,2.0000033,0.0,62,28,255.5570075317777,822.7576,mvc-12636,Mg(NiO2)2,https://materialsproject.org/materials/mvc-12636,18.786140018984586,55.55094578777381,3.6743526832131566,48.6609424973985
-10.154254145,-20.30850829,14.218857398247852,-0.006306012499999625,0.5727757,0.0,187,2,28.165040260879834,241.1715,mp-1216312,VOs,https://materialsproject.org/materials/mp-1216312,59.98199884061325,63.66373141046035,82.42327576756438,8.51368972821472
-5.803681476875,-185.71780726,4.218922132305269,-1.8683325134974995,21.9999999,0.6252,1,32,284.5684563402185,723.001465,mp-1175627,Li9Mn2Co5O16,https://materialsproject.org/materials/mp-1175627,10.401535885258808,87.24100872369844,8.018159237195318,95.65822818693898
-5.8015156353125,-185.64850033,4.2176597443429715,-1.866166671934999,20.0000008,0.8469000000000002,1,32,284.65363054001386,723.001465,mp-1176247,Li9Mn2Co5O16,https://materialsproject.org/materials/mp-1176247,11.354931670321546,88.27707439825501,6.872924165442384,93.95350112095038
-4.800293739523808,-100.80616853,4.306244352628303,-1.3820427770238093,6.0000007,0.0,2,21,190.91914790564232,495.107,mp-752908,Li6(NiO2)5,https://materialsproject.org/materials/mp-752908,8.547146829218024,74.58911993387643,13.186564034417447,71.6115818122638
-8.200908755,-32.80363502,13.177842280072452,-0.530844965,2.3800000000000003e-05,0.0,225,4,70.07891284478498,556.138,mp-976598,LiHf2Ir,https://materialsproject.org/materials/mp-976598,88.62210689967667,3.1377509824699485,57.308814431643846,67.9145486538665
-4.756026397,-95.12052794,12.603451583726091,-0.21395650400000008,0.0095888,0.0,123,20,345.32825590062697,2621.0332,mp-1216677,Tl4Pd15Pb,https://materialsproject.org/materials/mp-1216677,63.71419271453883,54.13368184971032,56.24400533098722,36.638005806571456
-5.8016373403125,-185.65239489,4.221337029929981,-1.866288376935,19.999999399999997,0.5175000000000001,1,32,284.40566344204154,723.001465,mp-1176082,Li9Mn2Co5O16,https://materialsproject.org/materials/mp-1176082,11.344363498914552,88.46631291072646,6.954129615501528,94.28704636972272
-9.552420710000002,-66.86694497,5.730001785011,-0.4105289808928581,4e-07,0.0,160,7,69.49284166183894,239.7981,mp-1216474,V4C3,https://materialsproject.org/materials/mp-1216474,29.678177186100942,59.8547089486009,82.954245639706,21.321856568516253
-6.22860070875,-448.45925103,3.6475104029832064,-2.2188755274972216,29.0001674,1.0677000000000003,1,72,628.8065890979577,1381.225325,mp-768726,Li24Mn5Cr7O36,https://materialsproject.org/materials/mp-768726,-11.0964924394416,99.74247398829777,-12.440880342556891,97.9321270655185
-7.277964326,-291.11857304,3.2838641964583535,-3.2428739392500012,0.0,3.4412999999999987,1,40,412.4669504700306,815.6902176,mp-684713,Al2O3,https://materialsproject.org/materials/mp-684713,6.433367279647409,64.30262172525633,5.160138946818779,54.02113508469068
-6.112605468333333,-36.67563281,9.908774913293316,-0.15273098638889002,4.5502889,0.0,216,6,86.77594985332355,517.8097799999999,mp-1025066,ErInCo4,https://materialsproject.org/materials/mp-1025066,70.73112153798951,47.80455061913818,73.5230216077645,23.882830757320328
-6.123561915,-36.74137149,10.117108735967758,-0.1706111622222224,4.733472900000001,0.0,216,6,86.25416733950503,525.51778,mp-1025033,LuInCo4,https://materialsproject.org/materials/mp-1025033,70.80760315209956,48.074315240628174,73.4854893198895,23.74511226382235
-5.8007649590625,-185.62447869,4.252266342422131,-1.865415995684999,15.999999800000003,0.4384999999999999,1,32,282.33700853409766,723.001465,mp-1175593,Li9Mn2Co5O16,https://materialsproject.org/materials/mp-1175593,18.902529761270717,88.85939043904536,10.571529619066585,90.56644968916862
-5.09645655625,-40.77165245,10.62120702954542,-0.4551829312500004,8.22e-05,0.0,194,8,121.62863516350549,777.966,mp-1184278,GaPd3,https://materialsproject.org/materials/mp-1184278,59.8322557651459,56.63813853183343,85.26552683307484,15.526351768075562
-9.546749238,-95.46749238,6.407040295744843,-0.18603719349999887,0.0,0.0,63,10,92.76106165727109,357.9102,mp-4253,V(CrC)2,https://materialsproject.org/materials/mp-4253,31.33256611441634,56.64447709392636,83.52655854782259,19.011517850393147
-5.778176635625,-184.90165234,4.226964252778618,-1.8428276722474992,20.0,0.0,2,32,284.0270432427932,723.001465,mp-1175640,Li9Mn2Co5O16,https://materialsproject.org/materials/mp-1175640,15.600059851986671,89.7951545877379,7.232123866948391,91.71806932745831
-7.5451543024999985,-181.08370326,4.317938177778921,-2.199850451628889,9.000000199999999,1.3721,186,24,262.02614811989207,681.35267,mp-755307,TiMn3O8,https://materialsproject.org/materials/mp-755307,-11.262415209671635,69.63426500189598,1.2526024712285986,59.19287941644759
-5.797624425,-185.52398159999998,4.2312440624995515,-1.8622754616225,22.000000600000003,0.4556999999999998,2,32,283.73975617480016,723.001465,mp-1175453,Li9Mn2Co5O16,https://materialsproject.org/materials/mp-1175453,11.990452912515698,86.50357659249819,8.102591957367963,95.53094053799221
-6.63396257263158,-252.09057776,4.308385693486655,-2.349842560043859,3.00000015,0.6985000000000001,2,38,354.8113846127948,920.58317,mp-775264,Li4Ti2Co3O10,https://materialsproject.org/materials/mp-775264,2.7822046762763666,82.29975367366275,8.202492834966034,83.95558040659951
-9.360578821666666,-56.16347293,4.8815443815248125,-1.4450031902377771,0.0,0.0,136,6,74.6602723992879,219.4814,mp-8282,Ti2N,https://materialsproject.org/materials/mp-8282,27.39354369974797,60.21881708824718,49.60773928572306,35.94817970243707
-6.000646135,-24.00258454,6.215195622556385,-2.243244351041666,0.0,1.0782999999999996,160,4,44.57760124343268,166.84853859999996,mp-1096824,AlAgO2,https://materialsproject.org/materials/mp-1096824,25.09774747370995,49.759841976736325,12.844320314461715,44.05915614764748