energy_per_atom,energy,density,formation_energy_per_atom,total_magnetization,band_gap,sgr,num_sites,cell_volume,weight,mp_id,formula,URL,tsne_cry_0,tsne_cry_1,tsne_xrd_0,tsne_xrd_1
-8.949529321052632,-170.0410571,5.845823246523622,-0.3352082173178925,16.8378552,0.0,71,19,203.7471567084095,717.27905,mp-1246793,Mn10FeN8,https://materialsproject.org/materials/mp-1246793,25.671305930310286,54.45223893881587,60.59858017736932,7.128837779616841
-5.4471684975,-87.15469596,3.517599556896509,-0.40249526333333296,0.0005835,0.0,99,16,253.0896359829252,536.1319246,mp-1217111,Ti5Al11,https://materialsproject.org/materials/mp-1217111,59.69692405874864,53.89195643284781,80.92925173527122,17.82888592150498
-8.332040276666666,-24.99612083,7.190163480518861,-0.041328967460000136,3.9766342000000003,0.0,164,3,29.029142120994702,125.6967,mp-1224698,Fe2N,https://materialsproject.org/materials/mp-1224698,31.062257244105602,57.164519957257426,85.96709298148775,17.509261316199265
-5.9309047,-23.7236188,6.1976843708917055,-0.4670066983333338,1e-07,0.0,123,4,63.01152947726058,235.18,mp-2767,TiGa,https://materialsproject.org/materials/mp-2767,60.13999539761046,54.527137101082154,81.33225109086669,17.38127803847942
-7.19391946,-28.77567784,17.43267295379817,-0.3614854699999999,4.4146018,0.0,221,4,60.98092734024707,640.1900449999998,mp-1180,MnPt3,https://materialsproject.org/materials/mp-1180,57.56778795703917,58.25296945943682,81.50239825110087,12.540093368746795
-5.889722974,-117.79445948,7.046653775123103,0.31821050804799994,0.094450775,0.0,62,20,243.46417698658615,1033.16316,mp-1246587,Cd(CoN)2,https://materialsproject.org/materials/mp-1246587,25.05112923798384,49.84069695828365,52.70462330936036,0.2982560925918595
-4.778472254,-23.89236127,5.021774889579404,0.25252994225000125,10.3766695,0.0,221,5,69.61083327588605,210.5159386,mp-1206753,AlFe3O,https://materialsproject.org/materials/mp-1206753,48.919303471840685,35.064238774256424,55.397627405916005,36.8469151043143
-7.919877725,-15.83975545,10.845448582598,0.10036478000000047,9.6e-06,0.0,166,2,30.983197935544094,202.36,mp-1221422,MoPd,https://materialsproject.org/materials/mp-1221422,66.9735829246641,61.158109154960925,88.68754506706745,17.742827201402463
-5.5172515553125,-176.55204977,4.294538560642948,-1.7220528899999996,21.9999997,0.5103,12,32,282.6474478131773,730.991765,mp-1175447,Li9Co7O16,https://materialsproject.org/materials/mp-1175447,9.74281495497411,86.71660377093569,8.770190800764155,95.67912413282265
-3.092530738125,-49.48049181,2.425861464276517,0.11963038687499995,0.016962599999999998,0.0,225,16,288.1798463013618,420.99846320000006,mp-1039180,MgAl3,https://materialsproject.org/materials/mp-1039180,100.77874064848669,4.719658638429872,69.63968871971467,60.510061441253356
-5.429235465,-119.44318023,4.390472593008451,-1.503229331136364,15.999998999999999,0.0,22,22,213.07528522842975,563.372,mp-1177431,Li4Fe3(NiO4)3,https://materialsproject.org/materials/mp-1177431,13.695619898287447,77.81929636107307,8.505741537001164,74.82932989193702
-5.477791124583334,-131.46698699,4.2042623455483215,-1.7172593518750006,16.000000099999998,0.0,2,24,211.4036737796957,535.245775,mp-1174366,Li7Co5O12,https://materialsproject.org/materials/mp-1174366,9.501777553375774,86.66762982170636,9.40443044071293,96.33218785879431
-5.855916345,-23.42366538,8.33488223674108,-0.5947480468749999,6e-07,0.0,225,4,74.7334809102462,375.116,mp-862941,PmMgRh2,https://materialsproject.org/materials/mp-862941,88.07222693327265,-2.2578274099473914,68.28454143701215,46.087024851001004
-6.6441004453333345,-99.66150668,4.220174991115239,-2.1346107519999995,8.0000004,0.5210999999999997,12,15,143.12296651603452,363.73969500000004,mp-763184,Li3Cr3CoO8,https://materialsproject.org/materials/mp-763184,17.037037935660106,81.28591439888388,21.40303767104113,82.59922857976237
-4.974725108333334,-238.78680519999998,10.34755677422593,-0.3584817045833333,2.4883333333333333e-05,0.0,47,48,760.8431789602839,4741.152,mp-1213339,CuSnPd2,https://materialsproject.org/materials/mp-1213339,61.78684503884402,56.382371311448225,82.46825560739515,17.269827255180445
-4.59059233,-18.36236932,19.39482064751283,0.0279519575000009,0.000174,0.0,65,4,67.28194830917506,785.842,mp-1066522,HgPt3,https://materialsproject.org/materials/mp-1066522,69.02314712691836,57.00157519142546,57.22178330955757,41.33385319172461
-4.740386741538462,-61.62502764,4.869827927442658,-0.9040265561538464,1.9999964,0.0,8,13,131.98642043163247,387.0738,mvc-12570,Mg(NiO2)4,https://materialsproject.org/materials/mvc-12570,14.538903800177719,54.63231330536604,4.303259305308707,49.52572363048922
-6.62110637,-13.24221274,3.4185475613916405,-2.643148519375,0.0,8.1754,225,2,12.149226423590815,25.011582,mp-1794,BeO,https://materialsproject.org/materials/mp-1794,7.719155755535935,61.76288283267178,90.75215394072826,6.547106424181623
-7.4520367925,-29.80814717,2.7976150258227963,0.4999632947916668,9.295e-05,0.0,186,4,27.09187894644113,45.6434,mp-984728,BC,https://materialsproject.org/materials/mp-984728,31.87359716490705,64.42399980854282,89.50047561087742,16.762400866309168
-8.966386005,-17.93277201,6.618460455629594,0.03874725666666557,0.0004098,0.0,65,2,35.319345767779204,140.77338,mp-1216634,TiNb,https://materialsproject.org/materials/mp-1216634,66.038354727662,23.3896774825276,65.43975799266539,63.086537542497474
-6.3847665175,-51.07813214,10.156264613613192,-0.2113477399999999,4.5791442,0.0,194,8,122.362007303612,748.3960900000001,mp-1186013,MnPd3,https://materialsproject.org/materials/mp-1186013,59.23284106284108,56.500393415838644,82.08700033954011,14.353587053718714
-7.060923222142858,-98.85292511,3.52820606373125,-3.345751495714285,7.2000000000000005e-06,4.5378,74,14,133.91378325154,284.5313544,mp-38307,MgAl2O4,https://materialsproject.org/materials/mp-38307,2.160116466175937,62.48252244854068,9.526421917068523,53.612075470310536
-5.169706350833334,-310.18238105,4.122340001462078,-0.2358965241666662,0.0008793499999999999,0.0,150,60,929.8883798630818,2308.4769300000003,mp-569049,Al5Mo,https://materialsproject.org/materials/mp-569049,47.07702060930454,38.45979194605261,76.29268992747552,15.496091150836909
-5.0273304875,-20.10932195,10.905940445257142,-0.4557594408333338,0.0003718,0.0,139,4,66.09273808372832,434.07800000000003,mp-1007664,InPd3,https://materialsproject.org/materials/mp-1007664,68.06709562509332,59.00212783448212,58.01492581553475,41.23599610495783
-4.555724095,-18.22289638,19.31873444537846,0.06282019250000026,1.8e-05,0.0,221,4,67.5469360563549,785.842,mp-1007690,HgPt3,https://materialsproject.org/materials/mp-1007690,69.03364212562755,56.9803908458817,57.197473442058154,41.38227903762087
-8.806588695,-105.67906434,7.0393434985902905,-0.23293299452333235,0.28513065,0.0,36,12,119.34642325074188,505.93238,mp-1247394,Mn2RuN3,https://materialsproject.org/materials/mp-1247394,22.439186858569137,52.53946502660621,44.42238083320259,31.290445298700252
-8.299154125,-99.5898495,7.041452402778903,-0.5526011987500006,2.767092,0.0,38,12,160.26273753990662,679.58802,mp-1220469,Nb4Fe3Si5,https://materialsproject.org/materials/mp-1220469,69.8394354167296,50.17959736409394,72.61951514799445,19.113930708283103
-6.4102538475,-25.64101539,10.748607810051515,-0.8277567499999998,1.98e-05,0.0,225,4,67.67132736642975,438.034,mp-862666,DyGaRh2,https://materialsproject.org/materials/mp-862666,96.11592218952816,8.665755512756363,62.634796397938395,65.19642981693603
-4.485607091428571,-31.39924964,10.294140249464542,-0.13821026512285733,9.5e-06,0.0,166,7,69.15384990447956,428.70382,mp-1224413,H3Pd4,https://materialsproject.org/materials/mp-1224413,53.10262542567197,29.118657800015157,56.384172715498806,41.760964915908744
-1.3508790366666668,-16.21054844,6.0320483948672425,-0.022800855833333245,4.5e-07,0.0,38,12,193.44353808581818,702.7,mp-1094484,MgZn5,https://materialsproject.org/materials/mp-1094484,59.59737069184417,52.59331534787025,81.14637068095662,19.110911758846107
-7.2455687328571425,-405.75184904,3.527796851053026,-2.8669670425000007,3.000000925,2.9845999999999995,212,56,521.6787769153686,1108.3008,mp-766402,Li2VSi3O8,https://materialsproject.org/materials/mp-766402,-0.6407470820971216,72.44044049772651,3.6006605121235897,57.88503879220401
-4.840246595,-9.68049319,10.895052961812807,0.24755915166666664,0.5035949000000001,0.0,187,2,32.124484266574186,210.7737,mp-1183233,AgRh,https://materialsproject.org/materials/mp-1183233,67.71160673073365,59.772676541481246,87.91504244070177,18.729198502629732
-5.395686166,-26.97843083,8.752008330414034,0.507587457524,1.7858546000000002,0.0,221,5,58.00396609401676,305.7147,mp-1207091,Cu3RuN,https://materialsproject.org/materials/mp-1207091,50.34001227923415,62.30477077263584,86.27066523698143,10.119102548465928
-7.9706034,-15.9412068,10.884326031288863,0.04963910500000068,0.0001042,0.0,187,2,30.87252983496025,202.36,mp-1221413,MoPd,https://materialsproject.org/materials/mp-1221413,66.92592855832802,61.23272871203756,88.50569731570185,17.983733602132467
-5.538804635000001,-33.23282781,11.485500055849647,-0.36978592833333396,0.0289724,0.0,216,6,85.39664351678104,590.6655189999999,mp-1077552,TbNi4Au,https://materialsproject.org/materials/mp-1077552,70.98486741141949,48.760320084619046,72.21454515337932,22.91485929896482
-2.591163185,-10.36465274,5.761530745187341,-0.22284007333333333,7.85e-06,0.0,141,4,66.17864841228717,229.6184,mp-1018026,LiAg,https://materialsproject.org/materials/mp-1018026,47.08112072892653,37.3768112993854,58.16649671028864,32.35473985610979
-4.985727826363637,-109.68601218,4.6960464981769485,-1.3298390654545462,4.0000002,0.5122,12,22,223.45407908608237,631.9338,mp-755672,Li4Ni5SnO12,https://materialsproject.org/materials/mp-755672,9.807953934684738,73.89946072159779,18.976423650780607,82.83293476903334
-5.5633344383333325,-66.76001326,3.8170173629509017,-1.8596641477083324,1.99999995,0.0,12,12,102.42934312495687,235.4504,mp-849695,Li2FeO3,https://materialsproject.org/materials/mp-849695,1.905956986140593,91.8410135682115,-5.563226970196734,85.34823933512108
-6.694067682272728,-147.26948901,3.9298761967071,-2.176278773409091,1.9999999,1.0107999999999997,15,22,226.1500629084452,535.2128,mp-754148,Li2V2FeO6,https://materialsproject.org/materials/mp-754148,10.742218713056076,73.18406422276017,12.829400413128607,73.0024238735854
-4.3321167825,-17.32846713,8.280667421204184,-0.4060960648750003,3.2200000000000003e-05,0.0,225,4,71.09657931853266,354.53976928,mp-977110,NaSnPd2,https://materialsproject.org/materials/mp-977110,93.5137914274433,2.1193436776061216,70.45269546106279,54.9994483413116
-5.06923220875,-40.55385767,1.7479950985686916,0.34074647624999965,8.3e-06,0.0,123,8,107.79854489142042,113.476,mp-1222002,MgB3,https://materialsproject.org/materials/mp-1222002,7.313371354593638,57.339332299983816,-0.8786457541636704,54.175101830197725
-5.1810090275,-20.72403611,3.360857571288742,-0.3956498041666672,1.8000000000000001e-06,0.0,139,4,63.64349345496387,128.8116158,mp-542915,TiAl3,https://materialsproject.org/materials/mp-542915,59.71844387004917,53.658246577728036,80.91834949215425,17.936215569759504
-9.68012130857143,-67.76084916,5.986729498105251,-1.083801605305715,0.00047999999999999996,0.0,166,7,68.17368559386487,245.7861,mp-1216472,V4N3,https://materialsproject.org/materials/mp-1216472,29.60336175370032,59.745024811501544,82.92018776117403,21.524473074654626
-7.730060184,-77.30060184,4.291090988405466,-2.9651493652500007,2.00000015,1.5227000000000004,148,10,97.45639662521052,251.8424772,mp-1178549,AlVO3,https://materialsproject.org/materials/mp-1178549,13.174303714291892,54.45377160221624,9.87091925272125,41.70149425861785
-5.483013183478262,-252.21860644,4.891547247456561,-1.510102161170435,11.999999800000001,0.0,4,46,423.04883948640366,1246.1997800000001,mp-758487,Li4Mn2Ni5O12,https://materialsproject.org/materials/mp-758487,22.03589535996663,77.78489156138336,28.670580664958553,77.04874239593576
-4.617303580689656,-133.90180384,4.453567139643799,-1.0576931487068977,4.999999900000001,0.0,2,29,313.3803787113656,840.4864464,mp-765844,Na5(NiO2)8,https://materialsproject.org/materials/mp-765844,7.373010108586103,73.82596015120578,12.913439878139885,67.06427272795591
-8.97749907847826,-412.96495761,5.20097296978822,-0.5427789797826096,0.00368635,0.0,193,46,503.3864956705393,1576.6564316,mp-1214915,Al3(V3C2)4,https://materialsproject.org/materials/mp-1214915,30.237668138872547,59.17465687660304,82.69761905977725,21.529646155920204
-5.34376052375,-42.75008419,4.873032036838848,-1.5869539617500008,0.0,0.8346999999999998,194,8,77.64017788618261,227.84352856,mp-867515,NaCoO2,https://materialsproject.org/materials/mp-867515,15.091251295233702,65.23678101670892,12.532165690116381,68.63585916770047
-6.67655934,-33.3827967,7.49861202081547,0.2377309950479997,0.0061418,0.0,139,5,45.24885120491162,204.333395,mp-1247156,Co(NiN)2,https://materialsproject.org/materials/mp-1247156,30.315448794114623,56.7804004336431,85.03112208839721,18.0563618268806
-5.838398358571429,-163.47515404,4.205045109810632,-1.897885163729286,9.0000001,0.7246000000000001,1,28,246.8582862591968,625.12847,mp-1174639,Li4MnCo2O7,https://materialsproject.org/materials/mp-1174639,10.878022301402476,86.35870488907766,8.692193192857331,95.49841624771095
-7.625326956842105,-144.88121218,7.35364187602016,0.0551059421557894,0.4799282999999999,0.0,12,19,169.8846333404947,752.3284449999999,mp-1247229,Mn2Co9N8,https://materialsproject.org/materials/mp-1247229,30.17894761102375,56.6264288189538,76.18803081887859,8.97421947888304
-5.802547118125,-185.68150778,4.244422296286894,-1.8671981547474996,20.0000008,0.5220000000000002,3,32,282.85879085593774,723.001465,mp-1176280,Li9Mn2Co5O16,https://materialsproject.org/materials/mp-1176280,11.733498250058489,86.30697081081385,8.337663582487792,95.33708079976714
-7.431894575,-29.7275783,18.051408661531227,-0.17368713499999974,4e-06,0.0,166,4,62.662473103621465,681.192,mp-1221425,MoPt3,https://materialsproject.org/materials/mp-1221425,62.891528256010254,59.76679683090768,83.35073498135921,15.376186464718607
-6.1483220917857135,-172.15301857,4.505675945747002,-1.7519003950685723,17.0000005,0.0,1,28,271.97247026846804,737.965075,mp-761441,Li4Mn2Fe3Co3O16,https://materialsproject.org/materials/mp-761441,-2.6864850707357504,72.29093686733856,2.5933171931093173,60.78595760373922
-6.705621145,-13.41124229,16.528797012048624,-0.003737734999999631,0.0003698,0.0,166,2,29.93703642796145,297.9895,mp-1219734,PtRh,https://materialsproject.org/materials/mp-1219734,61.95822918722697,61.09318366428051,84.62721051650672,13.527076683067564
-7.14601021,-28.58404084,7.305978021062912,0.3705621883333325,0.8511028,0.0,139,4,59.25153409235535,260.6927,mp-1187719,V3Ag,https://materialsproject.org/materials/mp-1187719,57.15370269452036,55.83414967161515,81.61824338512315,9.907544856724556
-9.870359665,-19.74071933,6.238656999159655,-1.35452090119,2.7300000000000003e-05,0.0,187,2,17.2872176964137,64.9482,mp-1018027,VN,https://materialsproject.org/materials/mp-1018027,30.823514734377635,55.182652347145726,90.73522980331306,6.375194530111966
-6.988552313333333,-41.93131388,8.63747283724889,-0.421321427638888,1e-06,0.0,191,6,67.05264945412524,348.781585,mp-5410,SmCo3B2,https://materialsproject.org/materials/mp-5410,55.28806348861161,26.209532330096092,68.24554253154493,19.318595079188672
-3.251386163333333,-9.75415849,7.277662837185353,0.10540749444444468,0.0,0.0,216,3,68.22585268410147,299.0142,mp-1225652,CuAgTe,https://materialsproject.org/materials/mp-1225652,86.30911792405772,0.9254436985287512,58.058638896045935,68.39779233298286
-5.953790753030304,-196.47509485,4.242343099002001,-1.9265110475000005,2.0,0.4798999999999998,12,33,323.07695200458784,825.3966,mp-758759,Li2Ti(NiO3)2,https://materialsproject.org/materials/mp-758759,10.825646798427897,76.37626001604714,21.375475521071483,83.2615494549928
-4.5264951025,-18.10598041,8.79755510143912,-0.3662165625,5e-08,0.0,194,4,88.34257737748803,468.04,mp-564,TePd,https://materialsproject.org/materials/mp-564,35.6067770361391,26.569620313595014,74.73710462625492,15.944286673227156
-4.485998296666667,-80.74796934,4.1124184900545355,-1.037399189194444,0.0,1.0318,1,18,196.53365802188003,486.72667712,mp-755035,Na2Ni2O5,https://materialsproject.org/materials/mp-755035,6.947651133877276,73.89469276251236,12.9438444840859,66.84584326699695
-9.839804063333334,-29.51941219,11.960454186100195,0.4584640583333328,3.4e-06,0.0,187,3,29.18722483987546,210.2284,mp-1008805,ReC2,https://materialsproject.org/materials/mp-1008805,49.60821640309507,18.25758134812664,47.87363224267958,-0.9068196819083559
-4.8012326075,-19.20493043,5.128281690680804,-0.4720938212500005,7e-07,0.0,123,4,68.19106846196453,210.5960772,mp-1215329,ZrAl2Zn,https://materialsproject.org/materials/mp-1215329,48.37008380604551,36.04030352531813,57.26426084086786,34.308409258124584
-6.711834535555557,-60.40651082,19.082720255516712,-0.4505280296296298,1e-07,0.0,139,9,139.9717530361205,1608.539,mp-30852,TiPt8,https://materialsproject.org/materials/mp-30852,61.03226764378449,58.051194197569934,82.44557931861132,14.629983701093565
-6.903608748297873,-324.46961117,3.9617017095217566,-1.6393263492425534,40.999999100000004,0.0,12,47,560.0031997247219,1336.051475,mp-867971,Mn15O32,https://materialsproject.org/materials/mp-867971,6.573461090239624,71.1437345084759,-6.262090465846901,91.04647820953069
-10.3073816025,-41.22952641,18.240892418120293,0.4690339615625003,0.0002512,0.0,221,4,66.09945948482901,726.09743,mp-972103,U3C,https://materialsproject.org/materials/mp-972103,50.495014672597435,36.39835347299756,58.501901557753754,34.34865178780626
-6.159813634444443,-277.19161355,3.672201335591012,-2.025040258615111,20.9999999,0.0026000000000001573,2,45,413.17795735188497,913.72296,mp-758698,Li13Mn8O24,https://materialsproject.org/materials/mp-758698,-10.849324838907519,100.8792359907128,-12.0431788073373,98.89528773507307
-6.236824605,-49.89459684,16.195295055331886,-0.02457128166666589,5.995e-05,0.0,194,8,122.23128734831644,1192.126,mp-861943,BPt3,https://materialsproject.org/materials/mp-861943,49.63647454068504,19.996347071366785,77.38036616838922,11.890661767687442
-6.113087298636364,-134.48792057,3.9273448974005496,-2.0156561811363645,7.99891565,0.7194000000000003,64,22,216.33759970544014,511.66058,mp-752511,Li2Co2SiO6,https://materialsproject.org/materials/mp-752511,8.821536172132063,74.63352998474203,17.520834088948902,89.05663781480293
-3.8903934475,-15.56157379,5.538368274873737,0.5090413337499999,4.5799999999999995e-05,0.0,139,4,68.03985017626444,226.93218199999998,mp-1183427,BeGe3,https://materialsproject.org/materials/mp-1183427,47.99486190354882,35.61050259276247,56.246502652699,33.11272669842643
-3.713602445,-14.85440978,4.157359946605517,-0.24808625431,2.7000000000000004e-06,0.0,123,4,33.95653316301275,85.01428,mp-1017509,MgNiH2,https://materialsproject.org/materials/mp-1017509,35.37874043278981,41.5168869248394,51.391372584853904,32.57517995938873
-7.264589659499999,-290.58358638,13.204537188150407,-0.4171189119999994,1e-08,0.0,194,40,629.0373536158606,5002.078799999998,mp-582360,TaPd3,https://materialsproject.org/materials/mp-582360,61.41689259453877,56.61450473946293,81.78184815151108,14.872501554737255
-1.4368051116666667,-17.24166134,5.055190465166183,-0.05347557499999992,3.5475e-05,0.0,63,12,203.82044892423417,620.4920000000002,mp-1094483,MgZn2,https://materialsproject.org/materials/mp-1094483,48.23012947917968,35.31468095434492,52.234780079659565,34.20797318098824
-9.839782150833333,-118.07738581,10.495620024782404,-0.0972369741666661,6.75e-07,0.0,194,12,178.76894174808425,1129.9288,mp-569624,HfCr2,https://materialsproject.org/materials/mp-569624,80.59164366170288,29.992723758245393,69.28152153646005,24.62696118690367