energy_per_atom,energy,density,formation_energy_per_atom,total_magnetization,band_gap,sgr,num_sites,cell_volume,weight,mp_id,formula,URL,tsne_cry_0,tsne_cry_1,tsne_xrd_0,tsne_xrd_1
-5.4740238183333325,-131.37657164,4.247294250059478,-1.7134920456250005,14.000000199999997,0.7014999999999998,10,24,209.2618154181593,535.245775,mp-1174403,Li7Co5O12,https://materialsproject.org/materials/mp-1174403,7.280981415308977,84.21420816297066,12.431913364416776,93.5836541706732
-7.415711225,-74.15711225,3.679985304884025,-3.3806208382500005,0.0,5.657699999999998,148,10,92.01704209750791,203.9225544,mp-754624,Al2O3,https://materialsproject.org/materials/mp-754624,6.720578826320825,61.58725521946915,8.124097620547332,50.437495799672185
-7.088902485,-28.35560994,5.269414605892041,-0.685367580356667,0.0,3.1415999999999995,115,4,34.20630352163806,108.5474,mp-1007823,GaBN2,https://materialsproject.org/materials/mp-1007823,1.413673273083891,72.57834225873778,58.478294506620855,33.426227472803745
-9.855857094,-49.27928547,12.351238290405565,-0.08005947774999952,0.0,0.0597000000000012,221,5,66.70645308101405,496.16858,mp-22087,TaRu3C,https://materialsproject.org/materials/mp-22087,63.24752152507986,54.45917853920211,57.461514684095704,37.91138492618003
-4.788979512666667,-71.83469269,4.734809199496613,-1.1894951526666668,3.0072746,0.0,12,15,134.52900264525798,383.5918,mp-758978,Li3(NiO2)4,https://materialsproject.org/materials/mp-758978,4.278162084625078,80.9538397812642,14.190032465267857,91.89988617643013
-8.028419238,-40.14209619,8.3325692318294,-0.11690600047599845,4.515549900000001,0.0,221,5,59.900637763283996,300.5808350000001,mp-1206805,Mn3SbN,https://materialsproject.org/materials/mp-1206805,51.198027692773856,61.497081374492986,83.14923327419288,11.543391832666039
-4.8370325335,-96.74065067,4.705261313302098,-1.343267655375,0.60000006,0.0,2,20,172.27920980902059,488.166,mp-756446,LiNiO2,https://materialsproject.org/materials/mp-756446,4.1731320188391114,80.94568315731175,14.192838316838328,92.03424094412426
-5.481993194166668,-131.56783666,4.263600439080928,-1.721461421458334,14.0,0.3216999999999999,2,24,208.46149119314447,535.245775,mp-1174292,Li7Co5O12,https://materialsproject.org/materials/mp-1174292,7.229768376874351,84.11097591984408,12.458574620810683,93.62931683020183
-5.524569715714287,-116.01596403,4.214502476938414,-1.4993866397619051,5.0000002,0.008899999999999908,1,21,202.6856326759536,514.422775,mp-867624,Li4Co5O12,https://materialsproject.org/materials/mp-867624,4.3162392325558265,76.96061951944394,17.894647530533646,92.64000329162924
-6.3938442015625,-204.60301445,2.42591609569729,-0.04907542496874928,0.0,0.0,74,32,253.47679862213798,370.30953856,mp-2315,NaB15,https://materialsproject.org/materials/mp-2315,6.253204655954511,57.97847087677189,2.3551805433481863,53.79383428986677
-4.9480582635,-197.92233054,5.296881419440021,-1.2361807489999996,0.9074723375,0.0,137,40,416.3994078019119,1328.2543999999998,mp-553966,Li(CuO)2,https://materialsproject.org/materials/mp-553966,26.80669709885459,56.170644603301675,13.220555587398,45.64028963550995
-8.10352785,-24.31058355,16.497629860149452,-0.694595526666666,1.05e-05,0.0,71,3,48.62297639198752,483.07437999999996,mp-11514,NbPt2,https://materialsproject.org/materials/mp-11514,62.53734888125378,56.250296418272065,81.25465241213622,15.738472048911225
-6.183386960416668,-148.40128705,4.942628960945409,-1.34014479012,4.0000589,0.7021,8,24,240.3714143245058,715.47051,mp-756736,Mn3Co5O16,https://materialsproject.org/materials/mp-756736,0.8901052215065736,72.28343120662738,2.4224939704585062,57.68153640377695
-5.629375713,-56.29375713,4.260028511411262,-1.388888143700001,1.9999999,0.1956,12,10,115.29589324158638,295.78575428,mp-1221438,Na(CoO2)3,https://materialsproject.org/materials/mp-1221438,6.552589638293416,74.71611716473194,18.490194558612302,91.32176286244837
-9.0280352625,-144.4485642,5.619730091380875,-1.0377426246424992,0.00737425,0.0,194,16,161.19682097850168,545.5352772000001,mp-1189472,AlV4N3,https://materialsproject.org/materials/mp-1189472,30.285574785050713,57.963957606292105,84.18481631556183,18.84255344495012
-6.01025102,-24.04100408,9.821596990876758,-0.8042311150000003,8.7e-06,0.0,225,4,68.48745031639433,405.083,mp-865271,LuMgRh2,https://materialsproject.org/materials/mp-865271,88.28190411654288,1.129399678557273,65.28507749992417,48.74500702943093
-6.60858841875,-158.60612205,4.716183982284878,-1.5663704551200002,9.9999992,0.0,8,24,247.02769952496726,701.59632,mp-772635,Mn3Cr2Co3O16,https://materialsproject.org/materials/mp-772635,0.6089553443264742,72.27084958014106,2.4544020077397795,58.05095342100131
-4.850601655416667,-116.41443973,5.092639512104112,-1.2857416177083334,0.9999966,0.0,5,24,207.88420607785218,637.5516,mp-756931,Li5Ni7O12,https://materialsproject.org/materials/mp-756931,11.076478186988137,79.27667510187263,28.469261665176933,77.56536777292865
-5.6131720886666665,-84.19758133,4.725527972766204,-1.5812242993333343,5.0,0.8104999999999998,2,15,135.13027937626643,384.55098,mp-764781,Li3(CoO2)4,https://materialsproject.org/materials/mp-764781,4.3127219027998605,80.99777068070429,14.155768121685686,91.88736100904538
-6.588329118,-65.88329118,7.519647617767358,0.2565159470479997,0.31649715,0.0,59,10,92.49361617854484,418.85158,mp-1246956,Co2CuN2,https://materialsproject.org/materials/mp-1246956,30.332317619634196,57.42894691151721,85.23279355871544,17.932765420882227
-5.370778430833332,-128.89868234,5.224350642618004,-0.9429816783333336,3.00000055,0.3308,186,24,231.06654321685252,726.97637,mp-773140,Co3NiO8,https://materialsproject.org/materials/mp-773140,1.3435593049963603,72.2490969433078,2.2588680302665582,57.4179735641635
-5.479380945882354,-372.59790432,4.6960941523460535,-1.6973125847058819,2.999999875,0.6101000000000005,1,68,563.543657047858,1593.73192,mp-760135,Li5(CoO2)4,https://materialsproject.org/materials/mp-760135,11.75299563406565,79.05265725230463,23.90467346514332,83.53879599980449
-7.407264675,-29.6290587,9.852048747879042,-1.0191942462500003,0.0004834,0.0,225,4,71.75642342209449,425.733912,mp-973432,LuScRh2,https://materialsproject.org/materials/mp-973432,88.56519479604741,0.4603077532409421,66.07854989694347,48.096478176790505
-5.661261735,-90.58018776,4.4766426277582285,-1.8998174272916677,4.0000001,0.0,166,16,140.84602086130798,379.7064,mp-756601,Li4TiNi3O8,https://materialsproject.org/materials/mp-756601,12.057169080186036,81.08105266795188,23.90433158507669,83.92461582314282
-4.48748888,-8.97497776,15.247425500048685,-0.044737643333332855,1.3000000000000001e-05,0.0,166,2,32.99337028092261,302.9522,mp-1229015,AgPt,https://materialsproject.org/materials/mp-1229015,63.56190155718626,58.51879279566433,82.81523155279612,17.160268220581045
-5.66738519,-22.66954076,16.952377133993142,0.037196921250000514,0.0008087999999999999,0.0,221,4,64.66609533946364,660.1736,mp-1183186,AsPt3,https://materialsproject.org/materials/mp-1183186,63.01931783236167,55.985172646711476,80.76911717311069,15.82564987223249
-7.05961131375,-56.47689051,11.432581055059718,0.2083305900600001,0.61823115,0.0,194,8,81.92774863636994,564.06119,mp-1245931,CoPtN2,https://materialsproject.org/materials/mp-1245931,50.058598566691636,19.787724878580168,50.160999125900595,6.917815571355053
-6.31970913,-25.27883652,9.333916825256118,-0.8529684037500003,0.0,0.0,221,4,64.79538570867962,364.215912,mp-2677,ScPd3,https://materialsproject.org/materials/mp-2677,59.120284497238295,54.08106347224978,80.87005461762391,16.383143988171643
-6.27969588142857,-87.91574234,5.478127223823611,-1.8358173164285716,0.0,0.0,227,14,115.71740577084505,381.752344,mp-770957,Be(CoO2)2,https://materialsproject.org/materials/mp-770957,5.617317018553422,75.1518359262847,18.049484932723697,89.72951684181083
-5.897240704,-29.48620352,8.547404864568442,-0.014323134476000376,1.8000000000000001e-06,0.0,221,5,60.58376316062353,311.8469,mp-1247483,Ni3SbN,https://materialsproject.org/materials/mp-1247483,51.19598999457463,61.482075346574476,82.19329605829542,13.684594688461395
-7.592058263999999,-37.96029132,7.516958990224849,0.1248945210479988,1.9488042,0.0,164,5,44.562154664725895,201.72479,mp-1245567,Fe(CoN)2,https://materialsproject.org/materials/mp-1245567,30.33435697098129,57.253759794415906,85.41430142292647,17.732462882210353
-5.616806557333334,-252.75629508,4.4018923951028945,-1.3048189490000008,13.0,0.4614,1,45,468.4776312813776,1241.878735,mp-759373,Li4Co13O28,https://materialsproject.org/materials/mp-759373,4.665980576213217,76.80204573787394,18.228788695313497,92.25599928149691
-3.171775065,-12.68710026,10.065819151356699,-0.1721810961250001,5e-07,0.0,225,4,71.99533925855965,436.41976928,mp-865097,NaHgPd2,https://materialsproject.org/materials/mp-865097,88.03859223523617,0.4999231189204994,66.20856207055057,47.36609938004254
-3.135231905,-12.54092762,8.957013235190043,0.9743913219050008,0.0325638,0.0,139,4,62.58969695306666,337.6113,mp-985299,Ag3N,https://materialsproject.org/materials/mp-985299,58.172683703179025,54.35564124438574,79.33032243484061,14.939261502834034
-8.2635311175,-33.05412447,8.904910163918311,-0.6681262799999992,7.136932300000001,0.0,225,4,72.23389724637099,387.366,mp-866059,GdMgRh2,https://materialsproject.org/materials/mp-866059,88.54662954458115,0.2321844152824375,66.38261596232779,47.91242411605161
-8.70258162,-34.81032648,10.324961822599732,-0.9574214437499996,0.0001628,0.0,225,4,69.03636767020689,429.25691200000006,mp-865041,HfScRh2,https://materialsproject.org/materials/mp-865041,88.45582115564903,1.0621157182210337,65.32839491171164,48.70021874074681
-8.929903806842105,-169.66817233,6.572156378454353,-0.3523941973178951,21.294455199999998,0.0,12,19,181.4588440399537,718.186005,mp-1246116,Mn9(FeN4)2,https://materialsproject.org/materials/mp-1246116,29.981228655032954,58.28697193934475,83.05291840129885,22.416004575807644
-7.09124319,-56.72994552,2.854584689095008,-3.1132853393750004,0.0,7.0842,136,8,58.197899711048244,100.046328,mp-7599,BeO,https://materialsproject.org/materials/mp-7599,32.42042703418273,60.197961261325595,83.50229236848554,19.095840942357768
-5.403678670625,-86.45885873,4.064612446232164,-1.7124806831250003,9.9999991,0.2896000000000001,12,16,138.6977613540245,339.49978500000003,mp-1174116,Li5Co3O8,https://materialsproject.org/materials/mp-1174116,7.233156967876762,84.58944682367812,-4.881859179975355,94.54803402268914
-5.471503111333333,-164.14509334,4.669858319640332,-1.5534695469000004,0.99999995,0.0,59,30,307.7227143866653,865.39457568,mp-766225,Na3(CoO2)4,https://materialsproject.org/materials/mp-766225,7.275178997126519,74.01878443726507,17.60739089714276,90.91276036311632
-5.583331640000001,-72.58331132,4.256823193498927,-1.2246184446153845,9.0000001,0.0,12,13,144.5938166158731,370.66898,mvc-16812,Li(CoO2)4,https://materialsproject.org/materials/mvc-16812,8.929277949524375,76.66512712106822,21.12343129569921,84.20028720508017
-4.9184408725,-19.67376349,8.772445653588152,-0.7078612887499993,8.7e-06,0.0,225,4,72.82212865332895,384.71132,mp-973831,LiHoPd2,https://materialsproject.org/materials/mp-973831,87.55737074821617,-0.5818568184147569,67.13077400726861,46.945253632529905
-6.7497220275,-80.99666433,5.89594722323912,-0.3742340416266667,3.75e-07,0.0,62,12,137.46062964905244,488.0708,mp-1029251,LiRuN,https://materialsproject.org/materials/mp-1029251,51.732542204821996,18.381752465471585,64.01291182927744,-14.715041148615455
-5.109714016333333,-153.29142049,4.635356732337829,-1.369391363666667,7.0000005000000005,0.0,186,30,272.78991302292616,761.4868,mp-761063,Li3FeNi3O8,https://materialsproject.org/materials/mp-761063,9.1487809156419,74.90169935990497,2.8764954640824345,60.80038385206301
-5.527891532619047,-232.17144437,4.1976843669567545,-1.5027084566666666,5.0,0.0,4,42,406.99539378275324,1028.84555,mp-759802,Li4Co5O12,https://materialsproject.org/materials/mp-759802,4.293156972349502,76.95931089940403,17.943338622734203,92.62071141671123
-6.2603395866666665,-206.59120636,4.243246584296212,-1.894402902348485,1.6666665333333333,1.4749,12,33,319.92955305345527,817.5297,mp-759143,Li2V(FeO3)2,https://materialsproject.org/materials/mp-759143,10.228259090627466,76.6705482503167,21.384053599115802,84.11930617609335
-5.662218006774193,-351.05751642,4.781028852061255,-1.4418530679838706,8.9974804,0.0,55,62,587.768197401299,1692.30391,mp-850020,Li4(CoO2)9,https://materialsproject.org/materials/mp-850020,0.9576208403959874,72.86930381892219,0.614621973079655,57.326448426177244
-5.990144992307693,-77.8718849,4.4323129283340075,-1.624176247307692,1.9999997999999999,0.0,166,13,151.28345069884227,403.80598,mvc-11660,Ca(CoO2)4,https://materialsproject.org/materials/mvc-11660,6.663242618221698,74.35714694632252,18.363663447034497,91.44269075501651
-6.1651131630769225,-80.14647112,4.983559303902188,-1.3779056246892316,8.9999999,0.0,12,13,139.5009544061725,418.666025,mp-773238,Mn(CoO2)4,https://materialsproject.org/materials/mp-773238,4.318299772763808,80.17461391742968,13.177292582498364,93.35086142327756
-3.9158561575,-15.66342463,16.555066622329253,0.3168586499999999,0.0001494,0.0,221,4,65.18082517360908,649.832902,mp-1206590,CoAu3,https://materialsproject.org/materials/mp-1206590,63.23456351713912,55.910186230098255,80.45548931666852,15.692819339820185
-9.748277402857145,-68.23794182,6.084214111419524,-1.151957699591429,0.0059743,0.0,139,7,67.08136943657301,245.7861,mp-1216464,V4N3,https://materialsproject.org/materials/mp-1216464,29.9611973719482,58.712864274968396,57.946730167581435,38.65886136570761
-8.000986125,-80.00986125,7.059212419135416,-0.014066033951999657,6.3091798,0.0,139,10,93.45060077128737,397.27319,mp-1245531,Fe2CoN2,https://materialsproject.org/materials/mp-1245531,30.460755085286326,57.4397031331194,85.08757396571394,18.62252204362695
-4.79507767,-115.08186408,3.98590034275553,-1.9111472872816664,0.999624625,0.023900000000000254,5,24,205.92299279231065,494.29041280000007,mp-765501,Li2NiO2F,https://materialsproject.org/materials/mp-765501,7.0866163024610485,84.11274099825344,13.734317303857615,91.88180865979623
-4.37439205,-17.4975682,10.155750729352627,-0.3055129966666668,1.6e-06,0.0,225,4,70.11093478887973,428.79400000000004,mp-31208,LiIn2Ir,https://materialsproject.org/materials/mp-31208,87.65371500678715,0.8003872524536106,65.58464964829798,48.05955556134803
-6.932645189374999,-332.76696909,4.146313380720617,-1.7027383302999997,45.0000006,1.1143,166,48,558.5753181480221,1394.744875,mp-851082,Mn15NiO32,https://materialsproject.org/materials/mp-851082,6.266842942158648,71.04287759520392,16.067487099148053,84.04846407219746
-7.758874792,-77.58874792,3.4972164681156683,-3.1376997225833336,0.0,5.830899999999999,167,10,81.46986153962213,171.5814772,mp-8110,AlBO3,https://materialsproject.org/materials/mp-8110,7.6020695188380225,62.05810362981414,10.165968125351128,46.76870690886393
-5.7134053017857145,-159.97534845,4.541032711370831,-1.5297450024999992,0.999499775,0.0,59,28,276.1645438551936,755.21996,mp-755386,Li(CoO2)2,https://materialsproject.org/materials/mp-755386,6.219079682788927,75.8067130213131,19.177645048172213,89.49770480179279
-6.437203795,-25.74881518,10.907651638578827,-0.5888632787499999,2.4e-05,0.0,225,4,69.29032216404279,455.150212,mp-867881,ScTlRh2,https://materialsproject.org/materials/mp-867881,88.33952364148134,1.0475212375968392,65.35800587321796,48.634228450673504
-5.386703306875,-86.18725291,4.535846920810905,-1.6423479674999992,6.0,0.0,166,16,140.51925556913903,383.8355,mp-757137,Li4CrNi3O8,https://materialsproject.org/materials/mp-757137,12.100666352499466,80.98010303896156,23.83184874027379,84.1349312401942
-5.47773228125,-131.46557475,4.231275812728133,-1.7172005085416668,13.9999997,0.16869999999999985,12,24,210.0540226446502,535.245775,mp-1174274,Li7Co5O12,https://materialsproject.org/materials/mp-1174274,7.308088519348482,84.2158749111687,12.492455341461813,93.62714133943157
-5.502672329166668,-132.06413590000003,4.276885409013944,-1.7421405564583334,14.0000014,0.7315999999999998,2,24,207.81396282194808,535.245775,mp-1174313,Li7Co5O12,https://materialsproject.org/materials/mp-1174313,8.45447785329298,85.22979665385455,11.155608826693387,94.83652347494005
-7.910959836000002,-39.55479918,7.204350675547961,-0.05412337295200018,3.8683887,0.0,164,5,46.286732831812785,200.817835,mp-1245597,Mn(CoN)2,https://materialsproject.org/materials/mp-1245597,30.379356705514716,57.51065585902742,84.92884648947431,18.70917752623672
-5.4876023181818185,-120.727251,4.343279860051654,-1.4983888166781816,5.00000065,0.7635999999999998,64,22,215.7860053400343,564.4064900000001,mp-755899,Li2Mn(NiO3)2,https://materialsproject.org/materials/mp-755899,7.7412517789348705,75.1405985712771,17.642326357677707,89.11359495269438
-6.186265698947369,-117.53904828,5.026977515448048,-1.3518576877326318,14.9999992,0.0,5,19,197.05069875677398,596.5348650000001,mp-757022,Mn2Co5O12,https://materialsproject.org/materials/mp-757022,0.9732058247592321,72.57464918463485,14.133430038697247,91.69307914050293
-4.778686819333333,-71.68030229,4.788749580426496,-1.1792024593333337,0.9999996999999999,0.2835000000000001,2,15,133.01367060984256,383.5918,mp-764850,Li3(NiO2)4,https://materialsproject.org/materials/mp-764850,4.2086246635878934,80.87522306834092,14.229314035805604,91.91049803520323
-5.10884882875,-163.48316252,4.613363370581342,-1.4943294934675002,11.0000014,0.08869999999999978,2,32,279.7858968242974,777.310245,mp-761013,Li8MnNi7O16,https://materialsproject.org/materials/mp-761013,11.287527509514124,80.16657369933506,23.42471982774196,85.02667790275116
-8.264299394444445,-148.75738909999998,7.4224836362617985,0.05961520005333259,0.8668183,0.0,2,18,170.23859160232925,760.9535999999998,mp-1246241,Fe4RuN4,https://materialsproject.org/materials/mp-1246241,29.13259852395491,56.68540850401251,60.824516344368526,7.521537382745793
-9.5265374925,-38.10614997,10.097067306529064,-0.2756078462499989,0.0020115,0.0,225,4,68.98105072489936,419.445912,mp-1184559,HfScTc2,https://materialsproject.org/materials/mp-1184559,88.46794666272066,1.0923453302764703,65.32644377667357,48.70076868854842
-5.5304657975,-176.97490552,4.3543309666577565,-1.7352671321874995,17.999999399999997,0.5004,12,32,278.76621529132643,730.991765,mp-1175480,Li9Co7O16,https://materialsproject.org/materials/mp-1175480,8.768313840900849,85.36561371527655,10.783884845709796,94.91879351779842
-8.848400597368421,-168.11961135,6.475703737279061,-0.3752149878442101,17.9089291,0.0,12,19,184.6594274560026,720.12745,mp-1246926,Mn10NiN8,https://materialsproject.org/materials/mp-1246926,29.96892568435048,58.38031267046125,83.048629579567,22.445030399684725
-3.2004070825,-12.80162833,5.8825234624737766,0.7422260533333338,1.7800000000000002e-05,0.0,221,4,62.09671416518014,219.98,mp-983230,Ga3B,https://materialsproject.org/materials/mp-983230,58.06364207553917,54.562112514451925,79.75742510293648,14.780790439374778
-5.669077734423077,-294.79204219,4.6790720135529975,-1.552706690096154,32.0,0.1903999999999999,2,52,494.871390136418,1394.450125,mp-758799,Li9Co15O28,https://materialsproject.org/materials/mp-758799,9.509732502557693,78.09733509920144,3.878133905714392,90.09267799467548
-6.629627899583332,-159.11106959,4.595268519644273,-1.5813555713299994,15.0000003,0.0,8,24,252.46465145503797,698.654375,mp-757903,Mn2Cr3Co3O16,https://materialsproject.org/materials/mp-757903,0.4457354551667761,72.2450728700465,1.8799705284893584,58.660573634317764
-5.797161204285715,-81.16025686,4.3490721439586375,-1.5784411528571434,10.9964403,0.1896,12,14,142.9978682204406,374.521785,mp-763922,Li2FeCo3O8,https://materialsproject.org/materials/mp-763922,10.225916686841352,76.76488379804624,21.37360292734721,83.72017243277763
-8.09146366125,-64.73170929,3.3844842004376074,-1.142267197439999,0.0,3.5966000000000005,215,8,56.63930992804549,115.4413386,mp-1019379,AlB3N4,https://materialsproject.org/materials/mp-1019379,32.39871863855837,60.42131024274428,70.03760784170065,19.90874348657795