energy_per_atom,energy,density,formation_energy_per_atom,total_magnetization,band_gap,sgr,num_sites,cell_volume,weight,mp_id,formula,URL,tsne_cry_0,tsne_cry_1,tsne_xrd_0,tsne_xrd_1
-4.488831358448277,-260.35221879,4.400143765789245,-0.05746110578817722,0.00106025,1.0281000000000002,4,58,1299.014893924737,3442.16676,mp-1229218,Ag6Hg(P10I)2,https://materialsproject.org/materials/mp-1229218,-4.335387882374008,-1.986944046670278,-29.74147700575529,-36.411543327627456
-7.403982946875,-236.9274543,2.871286162905313,-2.999206133177084,1.00001115,0.0,14,32,367.74931792970887,635.886,mp-1198768,CaSiBO5,https://materialsproject.org/materials/mp-1198768,-53.83909169479028,16.861131309224312,-8.534884524648241,-20.909670618970488
-3.2507727116666665,-19.50463627,3.178014106730982,-0.6629718379166665,1.96578505,0.0,51,6,107.47412409760722,205.6888,mp-1222502,LiBrO,https://materialsproject.org/materials/mp-1222502,5.204773040170288,-0.206982419113466,5.2279755076923005,-50.72918643985524
-7.663094622000001,-229.89283866,5.3481478749970845,-3.2816379952499997,2.5e-06,3.4284,176,30,515.0437101117459,1658.81672,mp-540949,Ba3SrNb2O9,https://materialsproject.org/materials/mp-540949,-14.998025637997037,-80.3921343838487,-19.703301882586047,-55.793641663238105
-3.921243050333333,-117.63729151,3.9065131815611553,-0.7980607007339164,0.00026785,1.3021000000000005,2,30,996.6971314869836,2344.7870772,mp-1192837,AlSb5Se5Cl4,https://materialsproject.org/materials/mp-1192837,-0.07541796478399368,-0.5244671111809599,-32.481453778543326,-32.560670886822685
-3.9695717207142858,-55.57400409,3.844402063070573,-1.1851069092857143,5.0000002,1.5633999999999997,74,14,335.5597082114332,776.8720900000001,mp-1222679,Li2MnBr4,https://materialsproject.org/materials/mp-1222679,20.43014446944227,10.989479765580855,-27.984226917430714,-70.52407583501824
-6.2632273629999995,-62.63227363,5.639130897520294,-2.3226661864375004,5e-07,0.7894999999999999,63,10,242.6819853836079,824.1392999999998,mp-1206692,PrLuS3,https://materialsproject.org/materials/mp-1206692,11.000297577780868,-2.4318041806155866,-7.1598865784903385,-12.427637480780051
-3.93765068625,-31.50120549,4.3785720032888165,-0.553947381796875,1.1e-06,0.6960999999999999,11,8,181.8713352726109,479.5652,mp-1079276,LiAsSe2,https://materialsproject.org/materials/mp-1079276,-4.895861549550628,-0.9922238693162924,-28.86537927049233,-36.382503011988156
-7.808614490535715,-874.56482294,6.083147275000196,-3.2314163479464293,0.0,2.8314000000000004,14,112,1853.0170130032475,6788.2628,mp-583714,Pr5O9,https://materialsproject.org/materials/mp-583714,-9.983841451057753,-61.20840594724765,-23.12301522719191,-57.4179492545578
-6.476153868999998,-64.76153869,5.698549299842348,-2.3054643374375003,0.97555025,0.0,63,10,239.6901875752882,822.556,mp-1205797,CeLuS3,https://materialsproject.org/materials/mp-1205797,11.070995294115457,-2.3817743846467843,-7.151081583469554,-12.460908719730682
-3.1357743644444445,-56.44393856,4.137562657912817,-0.7253853706666666,3.0000001,0.22079999999999989,14,18,752.5978081568059,1875.2468399999998,mp-573568,K2TcI6,https://materialsproject.org/materials/mp-573568,1.1608811311636942,-0.16694199673242918,-31.943761275522885,-30.88205351521416
-2.698589121388889,-97.14920837,4.273059842722538,-0.07976428847222176,0.0041527000000000005,0.0,187,36,653.407715101306,1681.412,mp-1223160,Li13Zn11Ge12,https://materialsproject.org/materials/mp-1223160,16.935562359382427,22.995461016766228,22.276084292495042,-48.612646745389306
-6.119463864166666,-73.43356637,7.3714452715883105,-2.9741577424279164,0.0,1.8799,194,12,245.92370712870536,1091.7016127999998,mp-1210620,LuSeF,https://materialsproject.org/materials/mp-1210620,15.616488385233724,5.2392558482263984,-8.12766166869717,-7.767998722634584
-3.62021451,-25.34150157,5.317796343263831,-0.763361530952381,2e-07,0.9284,97,7,273.96602271108054,877.3629999999998,mp-33985,Ba(InTe2)2,https://materialsproject.org/materials/mp-33985,12.45956487630436,1.1802696232058931,-16.150280496007564,-7.567192380098951
-4.3650858575,-52.38103029,4.966302621783399,-1.3295948786646907,1.0,0.18430000000000035,63,12,416.15431042218194,1244.6249037999999,mp-574426,CsCeCdSe3,https://materialsproject.org/materials/mp-574426,10.268381533017651,0.6307522495496466,-3.4480301293414723,-19.883961094092765
-5.9933711050000005,-83.90719547,4.079003181691667,-1.5589852091071432,2.9931502999999995,0.0,74,14,324.75135452819836,797.73,mp-1247109,SmMgMoS4,https://materialsproject.org/materials/mp-1247109,12.577608163041573,8.335814872897014,-23.436964293750645,-78.91765839276555
-4.071258693333333,-73.28265648,4.054521197076607,-0.9491785746599624,0.0,0.847,72,18,446.4101912496203,1089.9952,mp-18006,Rb2Cu2SnS4,https://materialsproject.org/materials/mp-18006,-4.645594354405222,-2.8374178578697324,-14.141175846968375,-32.0486787513067
-5.089758919318182,-223.94939245,5.507070434830056,-1.579826726112689,0.00461575,0.0,55,44,989.577548298231,3281.870000000001,mp-1201054,Dy4In5S13,https://materialsproject.org/materials/mp-1201054,9.4634233986041,-4.459958603823299,-5.851554995713687,-13.191692153682938
-4.61081477,-295.09214528,4.219891226173002,-0.7797558933219966,0.002384375,0.8858000000000001,14,64,2287.178579631005,5812.3564627999995,mp-1197158,Cs3Nb2Se11,https://materialsproject.org/materials/mp-1197158,-5.393285380449027,-2.4385947898953138,-30.802460364725732,-38.61526093731527
-3.43460678625,-27.47685429,4.354040783316954,-0.1745227555468749,8.75e-07,0.0,194,8,226.8182025582531,594.732,mp-568128,GaSe,https://materialsproject.org/materials/mp-568128,14.318073376430936,21.952097239327816,-20.965220869712734,-73.4062056761724
-3.4922841742857145,-24.44598922,5.301588002418509,-0.6243310330952383,0.0,0.7669999999999995,97,7,244.34372343901725,780.1139999999999,mp-677072,Ca(InTe2)2,https://materialsproject.org/materials/mp-677072,11.626862894694526,3.7359916619939972,-14.820807102737614,-8.280176211666925
-6.760107901666667,-81.12129482,7.032159304232569,-2.2756103386197917,3.1339662,0.0,8,12,267.1914704721464,1131.51991,mp-1225627,Er4US7,https://materialsproject.org/materials/mp-1225627,11.49652846561061,-2.7895817588106118,-5.144147574914348,-16.921757825765496
-3.489674959117647,-118.64894861,5.471285602801246,-0.4816160732352941,0.0,0.9622999999999996,5,34,1133.5010805685274,3734.756,mp-676644,Yb(Ga3Te5)2,https://materialsproject.org/materials/mp-676644,17.251106377308613,12.479782407099073,-13.320646227427186,-13.844324853697353
-2.4515019027777782,-44.12703425,6.251084864007566,-0.6004075579765326,3.04e-05,1.188,72,18,628.7281821517773,2366.8418076,mp-1106156,Cs2Hg3Se4,https://materialsproject.org/materials/mp-1106156,3.922126164360871,-7.2347788979493135,-20.37533055430092,-51.964633461353124
-3.667958777,-36.67958777,3.0475485030495477,-1.70138918655,0.0,3.0991,225,10,340.85666926501824,625.56628128,mp-1111649,K2NaScBr6,https://materialsproject.org/materials/mp-1111649,-0.4792274059196106,12.990176961933985,-27.561383095804853,-69.59423613463788
-8.32672949625,-399.68301582,5.2651202282188345,-3.3003879209374998,0.0,3.9406,15,48,699.8111300270747,2218.91184,mp-555349,La2CO5,https://materialsproject.org/materials/mp-555349,-10.941648018914464,-59.37671882658474,-18.269348219432338,-66.71004053959177
-4.108758997142857,-115.04525192,4.670224009532002,-0.8988573619642857,1.86e-05,0.0,115,28,651.6091367197864,1832.6342,mp-1224550,In10CuAgS16,https://materialsproject.org/materials/mp-1224550,10.62238813872824,13.090439212816314,-20.58584614692753,-75.91079628522493
-3.269665461,-32.69665461,4.40737667897919,-0.9575272862413796,2.00000015,0.8212,194,10,325.00444601049713,862.6217037999999,mp-1080570,CsNiBr3,https://materialsproject.org/materials/mp-1080570,-1.4391283032331248,14.195121452521606,8.133832299994637,-54.1330462979237
-3.9527657642857146,-110.6774414,3.5193951254112816,-1.783065440073892,0.00193085,2.9272,194,28,1005.4133108802499,2130.902448,mp-1209523,Rb3Sc2Br9,https://materialsproject.org/materials/mp-1209523,-1.2480451023673935,12.835473468889687,-26.45615118369283,-68.91858931591572
-4.962145194166667,-59.54574233,5.045604277596508,-3.0111307832933343,0.9999996999999999,0.0,36,12,182.23697069083903,553.7332256,mp-12268,BaCuF4,https://materialsproject.org/materials/mp-12268,-13.001089354629705,-22.037386523404454,-15.51346204107789,-17.367754608027834
-6.392905048499999,-127.85810097,6.471786484142255,-2.4720763669374994,0.0,0.5937999999999999,62,20,432.28295164963066,1684.78,mp-1270,Dy2S3,https://materialsproject.org/materials/mp-1270,14.015909852126025,-5.300515577089746,-0.8947117495127295,-13.5985901335405
-5.3819227735714295,-75.34691883,6.181690406087822,-1.949445933750001,1.75e-06,1.8690999999999995,122,14,300.0626128490045,1117.0434,mp-34376,Tb2CdS4,https://materialsproject.org/materials/mp-34376,15.85066076758599,-5.345553208839796,9.23052871218538,-9.06671556284634
-5.92114779125,-47.36918233,5.903077932238082,-2.0026148070982144,0.0,1.2365999999999993,166,8,144.3770333036144,513.248324,mp-9518,NdZnPO,https://materialsproject.org/materials/mp-9518,18.733027013232707,-38.783151479684,18.549396689147343,-39.888910781646025
-4.03852550125,-32.30820401,4.542900047800553,-0.8414806774479167,0.0,1.0178000000000005,9,8,176.70980438584812,483.4424,mp-556916,GaAgS2,https://materialsproject.org/materials/mp-556916,-1.5985173814266809,9.83274386066558,-13.851408466350264,-71.90088626713752
-5.531163028333333,-66.37395634,5.0463333813944,-1.3393959886646918,4.9999923,0.5093000000000001,63,12,384.10926218300375,1167.2976938,mp-1213063,CsTbMnSe3,https://materialsproject.org/materials/mp-1213063,10.248070876686679,0.7381634117678735,-3.066341755952452,-19.9017390660768
-5.34894411,-21.39577644,4.609770184027731,-2.2076840565312503,0.0,2.4307,166,4,100.21197108591755,278.1953,mp-1007636,KLuS2,https://materialsproject.org/materials/mp-1007636,14.380653130354927,5.724726634336977,-4.531658827795509,-4.235402017677576
-4.3415687145833335,-104.19764915,4.428652428375802,-1.0069299996982763,0.0,0.4985,14,24,967.3196190883403,2579.8384,mp-29603,Rb2ZrTe3,https://materialsproject.org/materials/mp-29603,13.935391826378625,0.3170929910013889,-3.5738010446422686,-25.379066516453662
-3.6884340669444446,-132.78362641,6.662341750563798,-0.2016726155172416,5.9e-06,0.0,202,36,829.5879613692068,3328.4363557,mp-1194744,Cs3Cu20Te13,https://materialsproject.org/materials/mp-1194744,16.62299801603152,22.310325815697926,-8.841502164364195,-15.137516524765868
-5.534275859166668,-66.41131031,6.049456866379432,-1.2424446444980248,6.9881325,1.2745000000000002,63,12,399.4575037281732,1455.2509037999998,mp-22291,CsGdHgSe3,https://materialsproject.org/materials/mp-22291,10.102206919948703,0.5543812922901924,-3.3302523442735685,-20.221577213777522
-2.7894014988888887,-25.10461349,4.541991545986941,-0.9535015369348656,1.7e-06,0.7008999999999999,12,9,345.7290554451764,945.6558438,mp-23099,Cs2Pd(IBr2)2,https://materialsproject.org/materials/mp-23099,-6.9162335247414735,-4.9920664618145985,-29.688314036641785,-49.789582170126025
-3.3188748832500004,-132.75499533,3.4297113044773946,-0.6882067534500003,0.0,0.9645,62,40,1581.5402560731695,3266.5456,mp-29380,K2Te2As,https://materialsproject.org/materials/mp-29380,-5.4449945022098065,-5.820219221120317,-33.480181544644395,-27.359133395163145
-6.6465604775,-79.75872573,3.756489653765316,-2.336160368203125,1.5e-06,1.1616999999999995,8,12,267.1649128121451,604.3833999999998,mp-1216098,Y4MgS7,https://materialsproject.org/materials/mp-1216098,17.258160038996078,5.52820915303469,-3.1025150577106486,-16.384162006635293
-3.351517558125,-53.62428093,4.454622506309449,-0.24974207575430984,0.0,0.9514,59,16,554.6260114300582,1487.859938,mp-17830,Rb3Ge4Au,https://materialsproject.org/materials/mp-17830,-4.542703498729259,1.0688502323625475,-23.57038594038473,-72.70036465979375
-6.412080327567568,-237.24697212,6.045997729960889,-2.4844012095777033,0.0004079,0.0,12,37,864.2493730217726,3146.719,mp-1203078,Sm4(ErS2)11,https://materialsproject.org/materials/mp-1203078,9.093053760705327,-3.0540726805175358,-5.424121393171307,-14.838391301935706
-3.5981390386250003,-287.85112309,5.146436902363118,-0.17073788262500006,0.0,1.0182999999999995,14,80,3206.5840098899243,9938.02728,mp-1201330,Te6MoI3,https://materialsproject.org/materials/mp-1201330,14.11029633111855,0.7318729282045313,0.2182095048939824,-16.857808109690822
-7.956425481666668,-47.73855289,6.1983329566721554,-4.095995963313334,0.9999408999999999,0.0,129,6,93.82629448566976,350.22760639999996,mp-755074,CeOF,https://materialsproject.org/materials/mp-755074,-23.922176579006013,-66.66270070313776,-15.984337895942216,-66.9969433652962
-5.727378759285713,-160.36660526,4.85032138704819,-2.2026792016071437,0.0002762,1.9912,62,28,653.9899221978883,1910.26,mp-1232125,Dy2MgS4,https://materialsproject.org/materials/mp-1232125,12.333394588414052,5.751776875210504,-7.361219268038073,-16.612353492215053
-8.2037813045,-164.07562609,5.703409234241272,-3.815144412,0.0,4.2116,36,20,314.2623994565555,1079.3886972,mp-1178155,La3AlO6,https://materialsproject.org/materials/mp-1178155,-11.11929554154794,-59.80072104769857,-6.836938697534309,-61.806665969853775
-5.21982571125,-41.75860569,6.450144432498496,-1.6385952511979176,0.0,1.0263999999999998,109,8,174.67820483606494,678.5144,mp-1079321,ErAgS2,https://materialsproject.org/materials/mp-1079321,18.889577747173327,9.92132236261508,28.491432863005137,-41.008339968585055
-3.1081272714814814,-83.91943633,5.388490577360929,-0.2050723683333331,0.00017669999999999999,0.0,217,27,678.5538014067961,2201.924,mp-1214544,Ba4Ga22Sn,https://materialsproject.org/materials/mp-1214544,19.121175979608818,23.70761904741648,17.022998815334553,-45.89365753926106
-3.92972741875,-31.43781935,5.555596616315284,-0.7360604315885421,0.0,0.07830000000000004,23,8,235.4135639161232,787.6134,mp-569114,BaAg2SnSe4,https://materialsproject.org/materials/mp-569114,9.575157478451679,-22.76694296120685,-16.626163775052156,-31.608321825378642
-4.302495491666667,-51.629945899999996,5.014586724644351,-1.4103181215813578,0.0,2.024,63,12,387.80305569237635,1171.1089037999998,mp-505709,CsSmZnSe3,https://materialsproject.org/materials/mp-505709,10.207660243851171,0.7210272922506622,-3.064492416661253,-19.937988826054248
-4.893318023269232,-254.45253721,4.596466600239048,-1.148553590046419,0.00074225,0.9772,163,52,1602.2225239691734,4435.0431638,mp-1213375,CsY(NbBr3)6,https://materialsproject.org/materials/mp-1213375,7.807936287879827,1.2667715610441606,-2.092771693958277,-20.885661997058207
-5.9741706233333325,-71.69004748,5.947220767306617,-2.3268391407031257,0.0001119,1.2092000000000005,8,12,258.1311767701335,924.49684,mp-1216547,Tm4MgS7,https://materialsproject.org/materials/mp-1216547,11.650255684403259,-2.2443091411182925,-5.809740664077298,-17.378051825662915
-2.7812691704347827,-127.93838184,3.9264192121181964,-1.4686984929760118,3.45e-06,2.9374,140,46,1950.7543360098339,4612.6463266,mp-667295,Cs7Cd3Br13,https://materialsproject.org/materials/mp-667295,-7.583766365175051,-8.017772213825788,-28.91609027166893,-50.18143716628824
-5.14123293,-30.84739758,4.2313001810585416,-0.20002510511494145,4.5128255,0.0,129,6,169.0069782364164,430.65489,mp-20242,RbMnAs,https://materialsproject.org/materials/mp-20242,18.878221186943442,-37.610350458769716,20.163603943981787,-40.96283071567775
-8.326868775,-799.3794024,5.261898695488801,-3.3005271996875,0.0,3.933099999999999,40,96,1400.4791615608835,4437.82368,mp-579552,La2CO5,https://materialsproject.org/materials/mp-579552,-10.94735635504719,-59.37426507901577,-18.275345761082946,-66.72529613650741
-2.97359237875,-47.57747806,3.888459789863421,-0.4016530339224138,0.0,0.6292,14,16,707.9612405309682,1657.8224,mp-10487,RbSb,https://materialsproject.org/materials/mp-10487,-2.841751017244935,-7.659917686824158,-20.60744754532219,-15.33997076293664
-7.275848657954546,-320.13734095,3.8318390598306737,-2.9351737726136364,0.0,3.3868,2,44,674.5032330522824,1556.4752,mp-19368,Sr2V2O7,https://materialsproject.org/materials/mp-19368,-23.034875847953888,-33.20625211797101,-5.400283789441201,-25.347653567344537
-4.009913693333334,-48.11896432,3.778694394994689,-1.2789804109195402,10.0000001,1.1275,139,12,406.7561999449732,925.60749,mp-28002,Rb3Mn2Br7,https://materialsproject.org/materials/mp-28002,-1.9168269062738168,13.066684972589938,7.957280076803397,-53.624617744008674
-3.746337224375,-59.94139559,4.007959470300404,-0.6921673831718751,7.175e-06,1.4454,2,16,528.292579979764,1275.1132,mp-542642,KSbSe2,https://materialsproject.org/materials/mp-542642,12.779919414639973,0.4140171404333543,-32.57196132246483,-31.448528506526014
-3.8891741557142856,-27.22421909,4.169268321252549,-0.9414287782738094,1e-07,0.13640000000000008,160,7,168.59420506570498,423.305,mp-541937,Zn(InS2)2,https://materialsproject.org/materials/mp-541937,-1.8014039772944859,9.449900607342354,-14.247957890560329,-70.96174444833308
-4.288391296,-150.09369536,3.5716441400032477,-1.5318883689714289,0.0,0.8315999999999999,225,35,1147.0682008585761,2467.222582,mp-1211836,K8Zr6BeBr20,https://materialsproject.org/materials/mp-1211836,8.06249092641118,-0.4228484932785447,-1.2307250676489148,-19.032533251824656
-6.140961482272727,-135.10115261,6.3820433204040246,-1.1413501249250595,13.99997555,0.8317000000000001,63,22,606.6624769578726,2331.6201038000004,mp-1191228,CsGd2Ag3Se5,https://materialsproject.org/materials/mp-1191228,18.28189433178952,1.1359338611485488,14.163480901987278,4.201538741123317
-7.706605464285714,-215.78495299999997,3.215234593964561,-3.142781562619047,0.0,4.9456,60,28,357.885075775164,692.9584,mp-9749,Sr(BO2)2,https://materialsproject.org/materials/mp-9749,-18.606884117552784,-28.83244827923728,-18.684919464432195,-16.532172024315688
-3.231173593181818,-71.08581905,5.864260795688744,-0.5431059549696315,8e-06,0.8009,1,22,631.8490417373073,2231.4004519,mp-1225982,CsGa5(HgSe3)4,https://materialsproject.org/materials/mp-1225982,14.18302213457078,14.510156959520232,-20.064421746652588,-76.07657017626398
-6.924614827,-276.98459308,6.1559638107858445,-2.649476791125001,5e-08,3.137,217,40,675.3722800877687,2503.7456,mp-3154,Sm3Sb5O12,https://materialsproject.org/materials/mp-3154,-18.85404709900745,-67.11636719270935,-7.0033431342527175,-67.48814270863582
-5.92456688625,-47.39653509,4.016539872325729,-1.9263676485732144,4.9733121,0.0,129,8,159.19370432211616,385.0604204,mp-1079195,SrMnPF,https://materialsproject.org/materials/mp-1079195,18.5682650139617,-38.27682250448093,18.76717597761616,-42.3560975804075
-5.873043545,-82.22260963,4.1161178434360615,-1.8776572171428567,3.0000001,0.3883999999999999,166,14,343.7774127853346,852.1500000000002,mp-1247038,Sm3Mg2MoS8,https://materialsproject.org/materials/mp-1247038,12.867243468000979,7.8672682096062765,-24.358522707335325,-78.25022116410477
-1.87819792875,-15.02558343,2.4007775094760206,0.32572634047413795,0.1144752,0.0,38,8,233.5543250252301,337.66864689999994,mp-1099306,CsMg6Co,https://materialsproject.org/materials/mp-1099306,-2.3675142300712606,-7.506961476451965,-32.96413287284584,-27.70382810660343
-6.221502075,-49.7720166,6.425298418373987,-2.359977366744792,0.0,1.3632,129,8,152.39451737002761,589.67614,mp-6625,LaAgSO,https://materialsproject.org/materials/mp-6625,19.810019344100585,9.000055344422375,23.823294807125922,-39.53522481285168
-6.5799358183333325,-78.95922982,3.405541689038724,-2.471803582026667,0.0,2.1398,12,12,290.78205980526815,596.3548000000002,mp-28580,Y2NCl3,https://materialsproject.org/materials/mp-28580,6.199952596428091,-0.3884366732339,-3.3680649340160853,-21.63308441806441
-5.725554786153847,-74.43221222,6.255852728030747,-0.6205906082051277,3.9998388999999994,0.0,12,13,335.583330712664,1264.2641,mp-1217179,Ti4CrTe8,https://materialsproject.org/materials/mp-1217179,20.252851475741853,10.141174557340397,27.579117809983288,-40.4935148875095