energy_per_atom,energy,density,formation_energy_per_atom,total_magnetization,band_gap,sgr,num_sites,cell_volume,weight,mp_id,formula,URL,tsne_cry_0,tsne_cry_1,tsne_xrd_0,tsne_xrd_1
-5.8433780925,-23.37351237,9.797445120835304,-0.5733714024999994,2.4100000000000003e-05,0.0,225,4,64.69082959054144,381.68621,mp-976259,LiTmRh2,https://materialsproject.org/materials/mp-976259,89.13336220201666,16.006148492131153,47.92870827034922,62.32109618773698
-6.7282285375,-26.91291415,17.913542858632514,-1.0410914162499996,3.37e-05,0.0,221,4,69.5399586395869,750.1823199999999,mp-195,HoPt3,https://materialsproject.org/materials/mp-195,69.13082610849466,56.55093890983731,56.127690589934,41.28372636806589
-6.150258726666666,-36.90155236,10.278549093279748,-0.3281545249999998,0.92316305,0.0,74,6,91.2963073136905,565.11383,mp-1223910,HoCoNi,https://materialsproject.org/materials/mp-1223910,80.16482586797594,29.16718198628361,68.87455615360888,26.121835992054873
-2.857968732916667,-68.59124959,1.4579566091196832,-0.029930817916666783,5.05e-06,0.0,64,24,463.632725381743,407.07046320000006,mp-1191737,LiAl,https://materialsproject.org/materials/mp-1191737,37.2041859708801,39.061281106858466,64.3806564362411,-12.897923695797436
-7.502571316527778,-1080.37026958,1.7970689594498972,-2.8765221340277782,0.0,3.5943,228,144,2664.934817992429,2884.0464,mp-556257,SiO2,https://materialsproject.org/materials/mp-556257,-81.4887695799695,31.603959228150266,-81.65360555868449,42.58915664669093
-9.820758615,-19.64151723,16.667436135059454,-0.2096067399999999,4.9000000000000005e-06,0.0,187,2,28.91366462523787,290.217,mp-1217409,TcIr,https://materialsproject.org/materials/mp-1217409,60.66916632487818,62.45317245037435,83.70787863987225,8.719600631817142
-6.7589987775,-27.03599511,5.063295604441784,-0.34385034250000057,9.3e-06,0.0,225,4,65.5892684672925,199.994006,mp-862553,Sc2BeRu,https://materialsproject.org/materials/mp-862553,35.78301007350756,37.811748163291675,46.557260763930934,62.45598474210579
-6.680393689000001,-66.80393689,5.602366139618032,-0.3640237452968748,21.7655887,0.0,166,10,197.2520554660876,665.4936799999999,mp-1221782,Mn4VSe5,https://materialsproject.org/materials/mp-1221782,23.31537939729849,23.235867943416157,59.58601685567234,-27.33960120839622
-5.246812335555556,-47.22131102,2.606023783179628,-3.450224934237778,0.0,7.2224,225,9,140.35601667628285,220.2725192,mp-3042,K2SiF6,https://materialsproject.org/materials/mp-3042,-13.540877720988743,52.22563974634497,-2.7604773416415544,58.41098252259579
-5.864970044583332,-140.75928107,4.102258965793325,-1.9175712077883336,16.0000004,0.3466,2,24,213.42589719270143,527.2554749999998,mp-1174530,Li7Mn2(CoO4)3,https://materialsproject.org/materials/mp-1174530,8.326551092879173,89.70358726717105,-1.3146921955816764,96.50610538631132
-4.322560396111111,-77.80608713,3.5214724634521413,-1.1948516959444442,0.99999995,0.7923999999999998,63,18,236.10697513138396,500.70741568,mp-764056,Na3(NiO2)2,https://materialsproject.org/materials/mp-764056,-13.631564630687912,47.24862417020797,-24.550231719607424,57.547764101287754
-8.0198237025,-320.7929481,5.080075229845621,-3.561724937583334,0.0,1.7721,221,40,496.0586217609074,1517.5886,mp-1099778,BaSr7Ti8O24,https://materialsproject.org/materials/mp-1099778,16.935260571375938,-94.33601490892957,59.42581332670513,-64.7385098680998
-5.7926668828125,-185.36534025,4.229256534206431,-1.8573179194349996,16.0,0.3796000000000004,1,32,283.8730989476302,723.001465,mp-1176040,Li9Mn2Co5O16,https://materialsproject.org/materials/mp-1176040,19.14723408641915,89.56759760891669,10.426042830952234,90.06683348514099
-2.485955165,-9.94382066,5.477522716424495,-0.4573804225,0.0,0.6234,36,4,145.52112557539357,480.022,mp-685146,CdTe,https://materialsproject.org/materials/mp-685146,25.36198707136853,15.902350488833878,64.34616522550724,44.25045703365522
-7.051146566666668,-105.7671985,3.87057312635979,-2.529035351666666,8.9999995,3.0001999999999995,10,15,142.81610088673366,332.892,mp-755028,Li3Cr3SiO8,https://materialsproject.org/materials/mp-755028,16.699509304242593,81.15237393870348,21.01101218452662,82.63068463616206
-9.60236254375,-230.45670105,10.625485482664939,-0.22608552331333226,0.19407960000000002,0.0,4,24,302.01594950032694,1932.5448,mp-1224884,Fe3Mo6PtN2,https://materialsproject.org/materials/mp-1224884,60.43413275131545,33.383537098989876,69.87841899594085,15.821827900782635
-2.9395697999999997,-5.879139599999999,6.168405165873567,-0.07541627499999981,0.0,0.20800000000000016,225,2,38.616841611808354,143.45,mp-570354,CuBr,https://materialsproject.org/materials/mp-570354,23.252577301637444,23.373601077867548,59.91804273930949,-27.492364397800433
-5.01535038125,-80.2456061,9.36952230949609,-0.36365705531249937,0.00022810000000000001,0.0,99,16,274.0511164382911,1546.322,mp-1224496,Hf4ZnGa11,https://materialsproject.org/materials/mp-1224496,50.26494646610237,35.36201389786668,55.44569117805653,34.08996672700716
-6.229135727638888,-448.49777239,3.6299248043416292,-2.219410546386111,29.0005205,1.0553,1,72,631.8529167480044,1381.225325,mp-768842,Li24Mn5Cr7O36,https://materialsproject.org/materials/mp-768842,-11.001537864340134,99.31577257059686,-12.614361506456499,96.60258104175394
-3.2671475175,-13.06859007,8.421605220747935,0.2068062494642855,3e-07,0.0,139,4,69.91436874643253,354.578362,mp-985295,Ag3P,https://materialsproject.org/materials/mp-985295,48.49476079203345,34.9979886073589,56.32910224968743,35.20820390866129
-6.895357983051947,-1061.88512939,2.636193750180708,-0.05524439676948042,0.0690184,0.0,16,154,1154.3640994330424,1832.6142,mp-1217011,V2(B24C)3,https://materialsproject.org/materials/mp-1217011,5.427871293333749,58.95566516783203,2.8520152651438235,52.9969604372211
-5.902504363333333,-35.41502618,8.020400856590104,-0.12387486166666645,4.717471400000001,0.0,216,6,86.74187813367918,418.96313,mp-1070837,TbMgCo4,https://materialsproject.org/materials/mp-1070837,66.77035151577222,50.123435575184956,73.59299369226434,20.78378725100097
-6.492870205,-51.94296164,11.445739993592431,-0.3905494700000007,0.0,0.0,194,8,147.50887373308038,1016.7470772,mp-10906,ZrAlPt2,https://materialsproject.org/materials/mp-10906,55.29701149325727,16.76252102085493,49.35630682690545,-0.15364061482077015
-8.01093516,-32.04374064,3.344250295496308,0.25955132586333285,0.0,1.5311000000000003,115,4,24.25034763028356,48.8391,mp-1008523,BC2N,https://materialsproject.org/materials/mp-1008523,31.99396108069466,64.45687660303028,87.52430744880631,13.549271049447682
-2.460576145,-9.84230458,9.35601500460504,-0.02086425874999964,6.4e-06,0.0,139,4,69.04352649851414,389.0136,mp-1187946,ZnAg3,https://materialsproject.org/materials/mp-1187946,52.15483463442294,31.026022090208606,56.14759689675746,38.260830764323394
-5.64191299,-22.56765196,9.844556368009618,0.6795815750000003,0.0019025,0.0,216,4,68.04488887430519,403.4062,mp-631565,GaAs2W,https://materialsproject.org/materials/mp-631565,93.8003204200308,8.877573313682516,58.58717360873495,66.75329553999775
-5.826538609166668,-139.83692662,4.099773092958837,-1.8791397723716667,13.999999800000003,0.0,2,24,213.5553067058569,527.2554749999998,mp-1174908,Li7Mn2(CoO4)3,https://materialsproject.org/materials/mp-1174908,18.960686408393453,91.38573482774756,9.558360003685065,88.77478851835963
-6.221443597142858,-87.10021036,5.269406089959055,-1.7749075078571426,3.0000002999999995,0.2497999999999996,15,14,131.62627728789496,417.6910572,mvc-4604,Al(CoO2)2,https://materialsproject.org/materials/mvc-4604,19.73218259356102,52.582637773170205,4.324534616887042,49.96376658253021
-3.162042433571429,-44.26859407,2.1927201511601893,0.07985632857142885,1.6899999999999997e-05,0.0,2,14,274.8629941975161,362.95300000000003,mp-1074538,Mg4Si3,https://materialsproject.org/materials/mp-1074538,42.22344682187019,17.957845772093147,53.67955135856368,2.626809178017768
-5.849509321666668,-35.09705593,9.96330478919894,-0.39631188750000135,1.2474874,0.0,216,6,79.44878426018174,476.69608099999994,mp-1072255,ScNi4Au,https://materialsproject.org/materials/mp-1072255,65.51997666966165,48.81363459429689,72.41188305760906,20.04023334683133
-8.937234746,-44.68617373,7.358491890018292,-0.6628091309520002,1.0800000000000002e-05,0.0,164,5,52.11175996889529,230.9274,mp-1246166,Zr(FeN)2,https://materialsproject.org/materials/mp-1246166,25.30438742312625,54.402461167682326,73.53678705755263,8.071928510947998
-9.087673995,-36.35069598,13.660787261030858,-0.61360627,0.0,0.0,221,4,59.521226994500246,489.66438,mp-1020,TaRh3,https://materialsproject.org/materials/mp-1020,59.29783957569293,57.67826369694922,83.75962288706312,11.332396993452045
-3.1261139,-12.5044556,7.5592205264405825,-0.23243458958333285,1e-06,0.0,225,4,74.99279899048355,341.3874,mp-2927,LiAg2Sn,https://materialsproject.org/materials/mp-2927,88.3633905069545,-2.4329066470481373,68.84220547723572,46.33697419695379
-6.051624562307693,-78.67111931,3.7015643355754198,-1.6039276863015384,5.0,0.0029000000000000137,12,13,139.3754074688195,310.686485,mp-1222848,Li2Mn2CoO8,https://materialsproject.org/materials/mp-1222848,-0.13722851632173014,76.25779509175928,-6.589045226531272,91.6399903520562
-3.753313185,-30.02650548,14.105063621985892,0.6900210844049997,0.0010525,0.0,2,8,142.42696542026755,1209.812814,mp-971657,Au3N,https://materialsproject.org/materials/mp-971657,53.242112803776166,17.532222453627558,69.84369384920662,13.960475081631927
-2.4436759775,-9.77470391,1.1782874151484841,-0.07567069499999945,4.1e-06,0.0,139,4,67.37006745037972,47.8045386,mp-975868,Li3Al,https://materialsproject.org/materials/mp-975868,46.990186839733035,37.304301262606046,57.99974895498613,32.22804884122911
-7.428065006000001,-74.28065006,2.9721039678250816,-3.3929746192500003,0.0,4.1705000000000005,12,10,113.93321579040155,203.9225544,mp-754812,Al2O3,https://materialsproject.org/materials/mp-754812,5.664777605598039,65.75941652526144,3.325575930106859,52.69205809357878
-9.22557464,-36.90229856,13.190235693384507,-0.8450975183333327,5e-08,0.0,123,4,60.44908736229942,480.168,mp-1235,TiIr,https://materialsproject.org/materials/mp-1235,55.4290471765074,40.515763753582895,73.73778477300576,15.723445928968944
-7.26728218,-29.06912872,8.211250370593188,-0.3749452499999988,1.09e-05,0.0,221,4,65.17491017494639,322.28541,mp-2800,USi3,https://materialsproject.org/materials/mp-2800,45.46964758209686,37.33328877563024,13.930241516824438,-12.34946652441174
-6.730045047261906,-565.32378397,4.377343802007705,-2.727741675119048,1.999508775,2.9658999999999995,8,84,804.1616241280309,2119.8489264000004,mp-530137,Al2NiO4,https://materialsproject.org/materials/mp-530137,1.5258957560655646,65.03398592790009,10.69691250598739,52.97180404588982
-3.508533405,-7.01706681,3.7768919481310514,-0.3824450525000001,0.0015617,0.0,187,2,43.625723311464654,99.2266,mp-973740,MgAs,https://materialsproject.org/materials/mp-973740,25.60930281561205,7.392419745585323,57.852709101661816,32.48469416332791
-5.857113917083333,-140.57073401,4.137837489489992,-1.9097150802883327,11.999999699999998,0.4234,2,24,211.59078927460646,527.2554749999998,mp-1174869,Li7Mn2(CoO4)3,https://materialsproject.org/materials/mp-1174869,2.6751161444920593,95.39942452842476,11.439483269146098,91.71932049231519
-8.262539855,-66.10031884,7.254697404608634,-0.09572308562499998,1.7510151000000003,0.0,146,8,132.1242632005244,577.2351786,mp-1220647,Nb3AlV3Sn,https://materialsproject.org/materials/mp-1220647,63.84273755841277,23.139055817966405,67.26273072258647,24.61652164563339
-11.50276789,-92.02214312,20.521396315734176,-0.12638541125000025,4.2999999999999995e-06,0.0,194,8,121.64123965832408,1503.27576,mp-1187248,TaOs3,https://materialsproject.org/materials/mp-1187248,67.59423559840961,63.56416951930442,89.60958084137216,16.672114985712426
-9.479696625416667,-227.51271901,11.774746807218644,-0.3036697691466668,0.0733428,0.0,198,24,311.8104990146593,2211.0228,mp-1225033,FeMo3PtN,https://materialsproject.org/materials/mp-1225033,60.42384797641407,33.376789320282285,69.64776504320889,15.845171343697025
-6.097132716875,-97.55412347,3.775663024825171,0.2267965381249999,3.545106425,0.0,225,16,295.3806695322342,671.6239999999999,mp-1094328,MgTi3,https://materialsproject.org/materials/mp-1094328,97.52901202090614,0.5299558660051,74.05991376026556,54.60875779991599
-3.596021285,-14.38408514,7.783501557319263,-0.4485634666666667,1e-07,0.0,225,4,73.17528041955498,342.99699999999996,mp-20801,LiIn2Pd,https://materialsproject.org/materials/mp-20801,89.37102604443714,-1.5215862086937562,68.4631121487724,47.388216129348976
-5.8292331683333325,-139.90159604,4.072265790132222,-1.8818343315383323,16.821308300000002,0.0,1,24,214.9978280918683,527.2554749999998,mp-1175050,Li7Mn2(CoO4)3,https://materialsproject.org/materials/mp-1175050,5.780216782302276,94.15076023191702,1.4640897986047954,91.13308560030714
-7.715754130833332,-185.17809914,2.115452588625363,-3.089704948333333,0.0,4.8008,132,24,377.3086719221811,480.6744,mp-554665,SiO2,https://materialsproject.org/materials/mp-554665,-81.24666680358494,31.222180177457403,-79.64718256013376,41.959377730405954
-5.7924096078125,-185.35710745,4.2302533777131375,-1.8570606444349995,16.0,0.4270000000000001,1,32,283.80620530553637,723.001465,mp-1175736,Li9Mn2Co5O16,https://materialsproject.org/materials/mp-1175736,19.245023965866295,90.76253139489808,10.161980442233483,89.40393849575106
-7.829101047222222,-140.92381885,6.104176404899071,-0.16918473785666618,3.3094715333333333,0.0,152,18,207.1918243088637,761.6415,mp-1245572,Cr2AgN3,https://materialsproject.org/materials/mp-1245572,24.94818163059575,48.85256815767049,12.580141318257072,44.294557343884975
-3.8212370916666663,-22.92742255,4.827126604857408,0.4144607589583333,0.0007775000000000001,0.0,191,6,84.50288025190949,245.6468,mp-849075,NiS2,https://materialsproject.org/materials/mp-849075,55.77486864362129,52.67193780796706,81.2797853371743,2.84276499701968
-3.63479357,-29.07834856,12.981398209407505,-0.13323249999999964,3.725e-06,0.0,198,8,105.39257849684289,823.915004,mp-30365,BeAu,https://materialsproject.org/materials/mp-30365,85.71193891274581,32.96792213573877,48.30973746864788,-0.5014034257666282
-5.591687224642856,-156.56724229,3.7877591443239815,-1.5931531321428565,14.999999599999999,0.0,1,28,281.43761060868917,641.9709849999998,mp-772702,Li6Fe3Co3O16,https://materialsproject.org/materials/mp-772702,0.2619217482205997,76.39152550961684,-7.336931618840959,92.50600264673884
-7.040769901999999,-140.81539804,10.369587686465024,-0.0635967089999994,0.0005322,0.0,198,20,346.59387269745514,2164.378836,mp-1220523,Nb3ZnAu,https://materialsproject.org/materials/mp-1220523,50.89520398442847,35.26295512497596,68.96572318806464,16.333871946206934
-5.79103477125,-185.31311268,4.2283855483546535,-1.855685807872499,15.999999800000003,0.40539999999999976,1,32,283.9315726724256,723.001465,mp-1175968,Li9Mn2Co5O16,https://materialsproject.org/materials/mp-1175968,19.180410341711628,89.68967753110209,10.34385257684193,89.82981429601242
-5.801957519285715,-162.45481054,4.1765782413897234,-1.8614443244435728,6.999999799999999,0.2590999999999997,2,28,248.5408316222673,625.12847,mp-1174466,Li4MnCo2O7,https://materialsproject.org/materials/mp-1174466,19.21593004598724,90.91305699564249,10.03737675704016,89.11440729644467
-10.63441077,-42.53764308,15.423897840568584,-0.8517209275000006,8.6e-05,0.0,225,4,69.67732126986537,647.197,mp-1184567,Hf2TcIr,https://materialsproject.org/materials/mp-1184567,96.72000641440985,5.000689018710029,65.38425696488511,64.3948770271926
-4.7918280225,-38.33462418,3.5968017104409613,-2.5635480196650002,1.9977068,1.9215,123,8,70.40991020869113,152.5110096,mp-752550,Li3NiOF3,https://materialsproject.org/materials/mp-752550,27.62433270879233,66.75345017047373,-4.690269789311672,65.30914001966855
-6.227842581527778,-448.40466587,3.6277483096735827,-2.2181174002749997,28.997348499999998,0.8902000000000001,1,72,632.2320016201892,1381.225325,mp-777958,Li24Mn5Cr7O36,https://materialsproject.org/materials/mp-777958,-10.946480336215854,99.0687304148276,-12.613718160021714,96.61363950893058
-4.06153148,-16.24612592,7.241547331553285,-0.20006749249999967,6.6e-06,0.0,225,4,65.22848046490721,284.458912,mp-973141,ScCdCu2,https://materialsproject.org/materials/mp-973141,93.80194793280909,12.984913047691634,60.07465024832752,62.55711089121204
-7.072636279166668,-84.87163535,3.6394249337840847,-2.036758255000001,4.9999996,0.0,166,12,141.88219184768636,310.9650386,mp-1229068,AlCr3O8,https://materialsproject.org/materials/mp-1229068,6.90999773760966,70.45063260263346,-6.643407445948247,91.10449892086771
-5.7814507096875,-185.00642271,4.2120470154733125,-1.84610174631,17.9999998,0.6322999999999999,5,32,285.03294341190633,723.001465,mp-1175656,Li9Mn2Co5O16,https://materialsproject.org/materials/mp-1175656,18.529661760599925,90.1294845147025,9.925831678259572,89.67267757491655
-6.73262039975,-269.30481599,3.270575248278353,-2.7908408600000003,0.0,2.0028999999999995,33,40,407.75543840515365,803.1096,mp-642209,MgSiO3,https://materialsproject.org/materials/mp-642209,7.090079781828736,63.963879467107326,-6.691133123499353,63.118928575977975
-7.42524965546875,-475.21597795,3.91054703797106,-3.4576502756640632,1.05e-06,4.4464,194,64,607.5508800277156,1430.7741264,mp-6995,SrAl12O19,https://materialsproject.org/materials/mp-6995,3.2581798723032636,60.586875696443606,7.126595815663477,51.98553098612603
-4.5993784089285725,-128.78259545,4.9630301291340375,-0.9604390874285724,1.000379125,0.0,62,28,273.51942505029524,817.49667712,mp-755841,Na(NiO2)2,https://materialsproject.org/materials/mp-755841,18.76740687158335,55.38295084405403,3.56489619988039,48.70462710257599
-7.1064006075,-85.27680729,5.755684106586707,-1.2212556148809517,3.425e-06,0.0,194,12,206.07625604542648,714.2920479999998,mp-1102854,YNiP,https://materialsproject.org/materials/mp-1102854,53.991096645356464,-16.678832924728795,25.08152422424076,24.867277839286498
-3.0180553377272727,-66.39721743,6.048592444976813,0.01261331227272742,1e-07,0.0,166,22,421.1080213886032,1533.906,mp-569007,Ga,https://materialsproject.org/materials/mp-569007,63.800035003960936,33.04318671673551,58.2102348576976,9.082387946759637
-7.080898474464285,-396.53031457,3.4738687630916263,-3.3657267480357134,2.5e-07,4.1391,8,56,544.0337034088628,1138.1254176,mp-530748,MgAl2O4,https://materialsproject.org/materials/mp-530748,1.8495640134573899,62.63441127539228,9.647225040575757,53.77620438995078
-8.943861159166667,-107.32633391,7.709733385426432,-0.22166046250000093,2.21792095,0.0,38,12,174.0348558416373,808.02818,mp-1215286,ZrMnFe,https://materialsproject.org/materials/mp-1215286,68.81454275632886,45.67244566161653,77.09341345047149,24.263661514241363
-6.222589794583333,-149.34215507,4.030622651238869,-2.088323893701666,13.999987699999998,0.6568,2,24,213.927268764518,519.265175,mp-1175141,Li7Mn4CoO12,https://materialsproject.org/materials/mp-1175141,4.498280062822978,88.46290725680684,-7.117313753171536,81.15055018955223
-8.575740154,-42.87870077,6.412428562616429,-3.5037292775833344,0.00011570000000000001,0.0,221,5,61.313830976487395,236.77285,mp-754696,PrTiO3,https://materialsproject.org/materials/mp-754696,4.105431684948473,-97.46994036579113,53.92763685615196,-66.76805101893187
-8.458960221857142,-592.12721553,7.4352155010247865,-0.15858493774799984,38.12574145,0.0,15,70,667.4810321439735,2988.7074,mp-684887,Fe24N11,https://materialsproject.org/materials/mp-684887,48.357233545443194,62.943778611733094,89.7596882944286,11.403375353906085
-8.024332353333334,-120.36498529999999,4.592272119162027,-3.5510310002500005,2.4e-06,1.7803999999999998,123,15,181.8506492814998,502.9136,mp-1218851,Sr2CaTi3O9,https://materialsproject.org/materials/mp-1218851,17.15365209911435,-94.282776687807,61.185858702229396,-63.468495401150506