energy_per_atom,energy,density,formation_energy_per_atom,total_magnetization,band_gap,sgr,num_sites,cell_volume,weight,mp_id,formula,URL,tsne_cry_0,tsne_cry_1,tsne_xrd_0,tsne_xrd_1
-5.777935785535715,-323.56440399,5.178102561780246,-2.253236227857144,0.0,1.4192999999999998,29,56,1225.1828806804613,3820.52,mp-1232127,Dy2MgS4,https://materialsproject.org/materials/mp-1232127,12.283746456278699,5.463927774686168,-6.488293679836514,-17.117866943468368
-7.725009765892858,-865.20109378,6.069278707984999,-3.2995709090178567,2.9999998875,0.0,14,112,1857.251237836476,6788.2628,mp-559956,Pr5O9,https://materialsproject.org/materials/mp-559956,-23.88658603876543,-66.88214045779793,-16.035782107669075,-67.07532044612455
-3.55988182,-10.67964546,5.503819212780976,-0.4601490861111112,8e-06,0.0,156,3,97.98980512550169,324.785,mp-1227944,BaInGe,https://materialsproject.org/materials/mp-1227944,9.570824564919599,-35.01087931210486,4.827809624223815,-53.455745641290996
-6.5358239121875,-209.14636519,4.392261448957622,-3.075361203080357,7e-07,4.3616,14,32,750.8725790959593,1986.1193280000002,mp-1205080,Ba2PIO4,https://materialsproject.org/materials/mp-1205080,-28.9484395433258,-32.192168145885354,-22.357262709439087,-32.26080378240302
-5.382242107000001,-107.64484214,3.1910093361467795,-3.5823183950829653,0.0,6.5983,14,20,384.02023582650077,737.9604623999999,mp-6500,KRb2ScF6,https://materialsproject.org/materials/mp-6500,-29.8564815736841,-21.005937070339932,-61.025868450968474,-65.50833457970357
-5.439814967285716,-380.78704771,5.377870359541149,-2.0244962688928583,1.183e-05,1.0893000000000002,160,70,1776.026058687017,5751.8899999999985,mp-532059,Er2CdS4,https://materialsproject.org/materials/mp-532059,10.645645726104707,12.342130009430097,-20.999155673731014,-74.9817854193258
-6.402933711499999,-128.05867423,6.055350403567202,-2.482424320687501,0.0,1.0560999999999998,11,20,463.1837830583494,1689.054,mp-13283,Sm(ErS2)3,https://materialsproject.org/materials/mp-13283,8.727057088578357,-3.0408202463725744,-5.236187244402204,-14.404398155414322
-6.6231301685714286,-92.72382236,7.080323530417701,-0.22796832476190435,7.5e-07,0.054300000000000466,176,14,368.4154987823208,1570.8759999999993,mp-22061,In(TeMo)3,https://materialsproject.org/materials/mp-22061,20.640154451318125,4.2310663564698325,15.218061781459891,-9.747066477925124
-6.469547608888888,-58.22592848,6.365662618523223,-0.6856256881481484,0.0,0.0,87,9,195.5749639529624,749.7349999999999,mp-7498,Ti5Te4,https://materialsproject.org/materials/mp-7498,19.835142816007263,8.895818974393274,52.76281518638359,0.13521752997329167
-3.76564910265625,-241.00154257,4.020034973857555,-0.5142612272835847,0.0,1.5924,15,64,2375.8735583873736,5751.803822800001,mp-1199633,Cs3Ag(AsSe2)4,https://materialsproject.org/materials/mp-1199633,-6.4885055567112495,-2.9377130312293094,-32.58057421692209,-45.26933073387462
-4.1820039,-54.366050699999995,4.342283416815723,-0.8949132016025646,6e-07,0.2407000000000004,160,13,319.12314718836467,834.502,mp-675124,In4SnS8,https://materialsproject.org/materials/mp-675124,10.129708407105083,13.334693871901766,-20.839169120798488,-76.58050895621204
-6.897858956666667,-41.38715374,5.808083583072786,-3.2914283234175006,0.97655795,0.0,129,6,109.31690569423492,382.35880640000005,mp-4973,CeSF,https://materialsproject.org/materials/mp-4973,14.360215123610553,-5.906919485830997,4.647673992757972,-10.147019079645244
-3.7891850509375,-121.25392163,3.909798585534367,-0.5478745276093746,0.0,1.1886,7,32,869.2375672094324,2046.65095424,mp-984519,NaAsSe2,https://materialsproject.org/materials/mp-984519,-4.820752129016973,-1.3639936380135922,-31.35444842327879,-38.04294573656136
-6.528145778,-32.64072889,8.365950332995316,-0.6396192720985212,7e-07,0.0,139,5,114.98139488727794,579.2869759,mp-1207365,Cs(PIr)2,https://materialsproject.org/materials/mp-1207365,15.287214519628188,22.417810980098682,24.31741829245314,-40.62291182944888
-7.447807374473685,-283.01668023,4.805405000442897,-3.0473352256578954,0.0,3.2182000000000004,8,38,619.0325594713023,1791.4075400000004,mp-1228930,Ba3LaV3O12,https://materialsproject.org/materials/mp-1228930,-10.444907282568396,-31.41109251525538,-18.05637704216527,-30.933880471984697
-2.0693906466666667,-12.41634388,5.1605074025457105,-0.18222916499999986,6.8e-06,0.0,9,6,170.10227974098999,528.6320000000002,mp-1232378,MgCdTe,https://materialsproject.org/materials/mp-1232378,14.40087445882413,1.3042743924328468,-16.230940761959662,-8.672632694851513
-6.235794870357143,-174.60225637,4.2911001616805855,-1.2542843650595241,2.999820675,0.5613999999999999,1,28,587.189893662073,1517.3932,mp-1247411,ZrCrAgS4,https://materialsproject.org/materials/mp-1247411,11.68028890641954,28.788210523161265,22.58712994943325,-49.77955213325611
-4.3435064500000005,-60.809090299999994,4.794696483070261,-0.6878532893452386,1.9999999,0.0,166,14,307.2208313282311,887.0798,mp-1220114,NiAg2Sn3S8,https://materialsproject.org/materials/mp-1220114,4.460678137477356,26.358063840882192,-19.822638901327554,-77.64845404523349
-4.369230724375,-69.90769159,3.7895894271421473,-0.8584125740052082,1.5e-07,1.0266,70,16,484.4972691207145,1105.6926,mp-14634,K2VAgSe4,https://materialsproject.org/materials/mp-14634,-6.323982574306388,-0.9647493472888072,-38.720824655009,-45.05659854713274
-5.779232967767856,-647.27409239,4.527526736974948,-2.2545334100892864,0.0,1.7607000000000004,227,112,2802.4672107578117,7641.04,mp-1232131,Dy2MgS4,https://materialsproject.org/materials/mp-1232131,13.547881455974373,8.190017370755196,-25.04725001725761,-77.31448661718395
-3.934041445227273,-173.09782359,3.81691782680401,-0.632315884215041,0.002364,1.6227,84,44,1575.6221909804829,3621.7278149999997,mp-1199840,Cs5As(PSe3)4,https://materialsproject.org/materials/mp-1199840,-7.636872429902906,-5.9957372941676,-28.281473469378714,-49.195574789671504
-5.2080741036904765,-437.47822471,2.1753862352237623,-1.6451417905630952,0.0,4.184,15,84,884.9280284296376,1159.2984,mp-697285,SrH10(SO4)2,https://materialsproject.org/materials/mp-697285,-26.136637545218893,-3.284488851054635,-23.97195692335316,-3.843364299251376
-4.305820891000001,-86.11641782,3.70644675169478,-0.8531219651249998,1.99999975,0.7172,15,20,322.0535956882407,718.8476,mp-1179129,SrBr2O7,https://materialsproject.org/materials/mp-1179129,-29.91058903850691,-25.245763991778823,-44.61416708637497,-12.59616177750612
-4.44101734375,-35.52813875,5.073891790329675,-0.18237198249999945,1e-07,0.6925999999999997,122,8,181.67835342565152,555.130764,mp-1009084,BeSnAs2,https://materialsproject.org/materials/mp-1009084,15.148803103147856,21.094976012980627,-15.655262706340585,-74.11548079011406
-4.61703439625,-36.93627517,5.8640547228146325,-2.0304566727975004,1.5e-07,1.5175999999999998,129,8,168.6373813369104,595.5288063999999,mp-1091416,SrCuTeF,https://materialsproject.org/materials/mp-1091416,18.907205732187094,-37.60480420370143,20.18228177788063,-40.97334224902432
-2.4095948725,-9.63837949,6.3388379496882274,-0.20197389500000007,5.479999999999999e-05,0.0,63,4,101.12231362126036,386.018,mp-541441,ZnTe,https://materialsproject.org/materials/mp-541441,21.567789684054755,8.063116745051833,5.931012961122236,-8.184284675440384
-3.863809909,-154.55239636,4.972233498335699,-1.0814002077726297,5e-07,1.9339,62,40,1277.7504393164932,3826.0308151999993,mp-559668,Cs2CdBi2S5,https://materialsproject.org/materials/mp-559668,3.1816389128415263,-8.233302487927944,-21.892609840778746,-33.333919869262274
-4.432039138333333,-53.18446966,5.638733095568307,-0.2552027450000001,0.0,0.855,2,12,404.181199447572,1372.4879999999996,mp-29190,Te4MoBr,https://materialsproject.org/materials/mp-29190,18.128345407781204,1.5812568996098808,0.5435438897870352,-16.821574529519626
-3.611855491,-72.23710982,5.637427991629523,-1.012722023277,0.0,1.9161,62,20,496.00238057392136,1683.8975999999998,mp-558849,CdBiS2Cl,https://materialsproject.org/materials/mp-558849,5.862295403925235,-7.243642542493037,-5.1672830845095605,-11.204066166787833
-4.66508265,-37.3206612,5.312732804250943,-2.3156587492297924,7.5e-07,1.2491000000000003,129,8,154.1235283508343,493.1032063999999,mp-1078562,SrAgSF,https://materialsproject.org/materials/mp-1078562,17.741235602657646,4.011590975726482,23.82509739439435,-39.40506920655835
-3.441780815555556,-123.90410936,4.424878573434271,0.3811281918322216,2.070632175,0.0,19,36,1018.826156486998,2714.890720000001,mp-1197496,Cu2I4N2O,https://materialsproject.org/materials/mp-1197496,-2.4287313577599914,-0.5803427845286169,-32.241842892343094,-35.778587536652495
-7.156738433571428,-300.58301421,3.3083360735297065,-3.4395885282199323,4.07e-05,5.518,173,42,553.9699099238021,1103.6889784000002,mp-1208696,SrCa4P3O12F,https://materialsproject.org/materials/mp-1208696,-18.45611288806948,24.13306682259261,-11.43906414663576,16.607875768144563
-6.539151049285715,-91.54811469,5.466323618170144,-2.4932538630357155,0.0,2.1278,122,14,291.085467287826,958.2234,mp-675293,Yb(YS2)2,https://materialsproject.org/materials/mp-675293,18.30154601918889,-4.136657247189136,9.015738184239336,-9.303538565101926
-5.7275575739285705,-160.37161207,4.31843772532127,-2.171170814107143,0.000147375,1.9572000000000005,62,28,697.1942045920349,1813.14,mp-1232095,Sm2MgS4,https://materialsproject.org/materials/mp-1232095,12.448425199340177,5.12967999063848,-11.628562104654991,-7.699149068920492
-2.961753135,-29.61753135,3.1830674625650603,-1.1636530755499996,0.0,2.4748,225,10,341.97717759972585,655.53196928,mp-1111240,K2NaAsBr6,https://materialsproject.org/materials/mp-1111240,0.270846644915529,13.999509456328411,-29.081640073453197,-73.945343591675
-6.7963974,-101.945961,5.824829466068136,-3.1088566466666663,0.0,2.4527,225,15,322.2672387567423,1130.4472,mp-755610,Ba6HfO8,https://materialsproject.org/materials/mp-755610,3.728671574786045,-60.53634033739456,-26.460665514848003,-70.20889507187147
-3.7015842539999997,-37.01584254,3.768297025787184,-1.7780035171913795,0.0,3.1082,225,10,358.3364312459696,813.18058508,mp-1112534,Cs2NaScBr6,https://materialsproject.org/materials/mp-1112534,-3.8233387083854073,-27.62222502731955,-28.57563762797725,-69.38951996418056
-7.367327196428571,-103.14258075,4.8983472236104175,-1.099373647627771,0.00072415,0.0,176,14,350.47192523102404,1033.8409038,mp-561682,Cs(MoS)3,https://materialsproject.org/materials/mp-561682,31.07682511418613,35.668393084698025,36.75620855744995,-45.53860685165223
-7.023255949761905,-294.97674989,4.048973474413994,-3.3617600166439803,0.00028680000000000003,5.074,143,42,633.5970216699303,1544.9305752,mp-1218918,Sr10P6BrO24F,https://materialsproject.org/materials/mp-1218918,-20.166542766765087,-32.422538952138574,-9.684949574468568,-33.51744258855019
-5.7076338228,-570.76338228,4.867820688165478,-2.6321293971750004,0.0,1.3032,1,100,2615.17924932654,7666.3200000000015,mp-1245192,BaO,https://materialsproject.org/materials/mp-1245192,-3.7634893641716993,-24.789717399495927,-21.636729960509047,-32.238529271713034
-4.383388481428572,-92.05115811,3.5384725886169544,-0.2679476715900005,2.0000006333333333,0.0,12,21,623.0110299984633,1327.5854399999996,mp-1190534,NbBr4NO,https://materialsproject.org/materials/mp-1190534,-1.3562856589510641,0.6492607025859519,-32.14659199653898,-39.29838529410597
-3.6575745133333335,-21.94544708,3.9402662968940936,-0.4017166760000001,0.0,0.34629999999999983,186,6,196.1578510721064,465.4598,mp-3481,KSnAs,https://materialsproject.org/materials/mp-3481,14.858091944456724,5.508301830269493,-7.204214915043516,-6.655225617781273
-4.64845347090909,-51.13298818,7.95212057044484,-0.3593503072727273,0.0,0.0,148,11,277.62582735219524,1329.5165,mp-7273,Te8Rh3,https://materialsproject.org/materials/mp-7273,28.27660529578311,24.602280910079212,37.91739559631104,-24.037821594654737
-4.6849677367857145,-131.17909663,3.442877485752921,-1.3438385366964287,0.00011240000000000001,2.4663000000000004,62,28,818.1573579726238,1696.326,mp-1194183,Ca2SiSe4,https://materialsproject.org/materials/mp-1194183,11.019657772413305,-7.015523896918485,-5.718520237333409,-5.885721173472429
-6.630426298000001,-99.45639447,8.02812160046402,-2.3981663295833338,0.0,1.7473,1,15,260.14865264582335,1257.72714,mp-753102,La2Bi4O9,https://materialsproject.org/materials/mp-753102,-24.579242843141266,-62.32966601902131,-14.146916459676087,-62.79900975488698
-6.688580041875,-214.03456134,5.725988003137362,-2.298012039414064,8.7425e-05,1.1803999999999997,62,32,660.5046540064192,2277.5988,mp-1197252,Tb2ZrS5,https://materialsproject.org/materials/mp-1197252,13.815064668238987,-6.088701893912639,-0.4146994620899578,-12.524935686039262
-3.89160772375,-31.13286179,4.523611772170887,-0.715283433697917,0.0,0.9223000000000005,82,8,176.95046482034343,482.0454,mp-1215558,ZnAg2GeS4,https://materialsproject.org/materials/mp-1215558,-1.2567349168270774,9.999718097686431,-13.995370407396116,-72.21438365750879
-5.7494600747368425,-109.23974142,6.939951387090838,-0.1978528978947368,0.004823,0.06709999999999994,204,19,533.0187747309019,2227.66481,mp-1211847,La12Co6Pb,https://materialsproject.org/materials/mp-1211847,34.06471701096038,-48.120737093796514,30.514814966534033,-29.164112597172856
-6.530504566756758,-241.62866897,5.793181435680647,-2.467986179037162,4.3820862,0.0,12,37,882.8779232835216,3080.12752,mp-1197418,Ce4(HoS2)11,https://materialsproject.org/materials/mp-1197418,8.751227737537397,-2.983705266361779,-5.320956861742023,-14.52752407843194
-4.5857938675000005,-128.40222829,3.2565527502957328,-1.4612708419642868,0.00205935,0.0,62,28,667.2153478241192,1308.504,mp-866539,Ca2SnS4,https://materialsproject.org/materials/mp-866539,9.077841073781244,1.5247692946332134,1.3308696720858435,-18.187605648281508
-3.358726005,-13.43490402,5.478445454587002,-0.7098685641145832,9.000000000000001e-07,0.0,164,4,88.31209476591066,291.35900000000004,mp-20519,CdInS2,https://materialsproject.org/materials/mp-20519,20.1026325838824,7.593875713269638,23.64976619136098,26.14311389080886
-5.93436550375,-47.47492403,6.228320157155334,-2.028019135848214,0.0,1.293,166,8,140.09993270939148,525.484324,mp-550820,SmZnPO,https://materialsproject.org/materials/mp-550820,18.926958308196003,-38.97909898147078,18.528248927174594,-39.89709269947667
-3.6920997771428565,-103.37879376,4.740591637076979,-0.6826641658630953,3.975e-05,0.9252000000000002,122,28,798.3337669081544,2279.124,mp-1232056,Mg(InSe2)2,https://materialsproject.org/materials/mp-1232056,15.204978102940126,14.41419901238689,-9.828494843856836,-15.183884529884901
-1.8370119035714283,-25.71816665,6.91912769092708,-0.343593165,0.0,1.6995,199,14,488.0382728669933,2033.556,mp-27853,Hg3(TeBr)2,https://materialsproject.org/materials/mp-27853,11.079794328716,1.6359216814275712,-4.856252871214682,-11.074995264610578
-4.04232319,-56.59252466,4.7916111220865645,-0.7340644668452383,1.1e-06,0.27380000000000004,166,14,326.0345574016874,940.7974,mp-1226771,CdAg2Sn3S8,https://materialsproject.org/materials/mp-1226771,4.319303543006324,26.237175755378605,-20.46660236742141,-76.1963884685169
-2.7444911495833333,-197.60336277,3.9443451374368133,-0.3848177173611107,0.0,1.3202,14,72,2832.5845689362072,6728.352,mp-569830,Te2PdBr6,https://materialsproject.org/materials/mp-569830,-1.619283564818247,1.2516456468595822,-33.412754394377735,-35.540272111240604
-5.988360754285713,-83.83705056,4.915503993384968,-1.866933895178572,3.0000123,0.03779999999999984,166,14,329.8678138744034,976.47,mp-1247060,Dy3Mg2WS8,https://materialsproject.org/materials/mp-1247060,12.676829619800566,8.35396100240753,-23.5370993685948,-78.91327344148672
-4.665429736666667,-83.97773526,2.972464758383361,-1.3820690187800002,2e-07,5.2513,43,18,284.37301438982263,509.0448,mp-28477,Sr(ClO3)2,https://materialsproject.org/materials/mp-28477,-29.63750425657877,-23.304180921532392,-30.212551798903434,-17.578784125416078
-3.3734966416666667,-121.4458791,4.953462714609069,-0.4687762943888889,8.5e-07,0.9918,155,36,1166.806083450516,3480.63507712,mp-29462,NaGa3Te5,https://materialsproject.org/materials/mp-29462,17.284853338576607,12.957586768152598,-13.262683543628215,-13.884094065020518
-5.7804019106250015,-647.40501399,4.410534064790052,-2.2494106986607147,0.0,1.7129,227,112,2833.7380404424516,7526.6512,mp-1232112,Tb2MgS4,https://materialsproject.org/materials/mp-1232112,13.679182139303038,8.141191071952862,-25.02550705236732,-77.25569630611331
-5.865779037,-58.65779037,5.761788669116679,-2.2944956974375,1.2e-06,0.0439999999999996,63,10,235.9487150948385,818.702,mp-1079021,YbCeS3,https://materialsproject.org/materials/mp-1079021,9.468146769397839,-4.8386848121514205,-1.433004242799793,-12.95626156279415
-7.461460143888888,-134.30628259,5.9168661022307,-3.367025728749999,1.93642495,0.0,55,18,356.3535118480578,1269.7659999999996,mp-769656,Ba2Ce2O5,https://materialsproject.org/materials/mp-769656,-4.930662706193925,-62.159610462975614,-21.124251350754253,-65.01026893741692
-4.04111569,-32.32892552,4.518414816054257,-0.8440708661979173,0.0,0.9598,122,8,177.66739254195477,483.4424,mp-5342,GaAgS2,https://materialsproject.org/materials/mp-5342,-1.2545152016505776,10.016182042602038,-14.088566597621472,-72.22929589191158
-6.367886809,-254.71547236,6.482513475060848,-2.4470581274375,7.875e-07,1.9093,122,40,863.1352559695032,3369.56,mp-32826,Dy2S3,https://materialsproject.org/materials/mp-32826,15.933927548395733,-4.3003624428624185,9.34354059113687,-9.618777394352273
-7.8145563290625,-250.06580253,6.12385454786912,-2.818874080781251,1.999999925,0.0,62,32,502.0590375337695,1851.5292,mp-1209517,Pr2RuO5,https://materialsproject.org/materials/mp-1209517,-12.307048628222963,-60.80378238864019,-19.319758922067965,-58.22623231294168
-5.076675207272729,-111.68685456,6.694250105528302,0.1217677827272726,0.0436822,0.0,163,22,489.4538169699533,1973.17027,mp-675570,Mn3(SiTe3)2,https://materialsproject.org/materials/mp-675570,-2.8247518736482586,14.175666968444679,25.859840289798413,-43.95285938784217
-5.7137515441666675,-68.56501853,4.527426876837739,-4.205367001626667,2.5e-08,6.9697000000000005,62,12,184.29153404948315,502.4672256,mp-1102911,SrF2,https://materialsproject.org/materials/mp-1102911,-11.309137804854313,-27.094846086918558,13.97806593294322,-47.319038833444516
-5.98331498125,-95.7330397,7.137358376913627,-0.4392585037500005,0.0,0.0,53,16,378.5753106294305,1627.19912,mp-20506,NbNiTe2,https://materialsproject.org/materials/mp-20506,20.533940523000464,4.238447818445987,15.300455112887995,-9.950274957497529
-6.225556361428572,-174.31557812,4.29093943475021,-1.2440458561309526,2.99986265,0.3803999999999999,59,28,587.2118881997708,1517.3932,mp-1247006,ZrCrAgS4,https://materialsproject.org/materials/mp-1247006,11.658757031825486,28.769381978970557,22.59571064746889,-49.76087182479511
-7.628378972857143,-427.18922248,5.608519664553063,-3.3573401025000007,0.0,4.055999999999999,84,56,992.9656210294667,3353.77072,mp-1211567,La4AsBrO8,https://materialsproject.org/materials/mp-1211567,-12.80854282812467,-59.83337260079795,-16.505170873573036,-57.24052550114361
-3.1443151785714285,-22.01020625,3.1993031631568503,-1.4942330885899016,0.0,0.5863,139,7,268.69148737512114,517.6786,mp-30004,Rb4Br2O,https://materialsproject.org/materials/mp-30004,-2.0388465531746665,-29.18798189476041,-25.744176695941853,-68.59900376383224
-5.76459369857143,-80.70431178,5.402799907446201,-2.250760628035714,0.00128715,1.5456000000000003,36,14,299.407844479154,974.166,mp-1225591,Er2MgS4,https://materialsproject.org/materials/mp-1225591,12.196269531051373,5.516925993019093,-6.507001849815415,-17.185299332840536
-7.218884508461539,-93.84549861,4.911718742399317,-3.0358450323076935,0.0,3.7532,166,13,216.99782004669945,641.8592,mp-19365,Ba3V2O8,https://materialsproject.org/materials/mp-19365,-10.064603466941797,-31.51007142797196,16.495008924549715,-72.36790375659392