energy_per_atom,energy,density,formation_energy_per_atom,total_magnetization,band_gap,sgr,num_sites,cell_volume,weight,mp_id,formula,URL,tsne_cry_0,tsne_cry_1,tsne_xrd_0,tsne_xrd_1
-6.30299967,-189.0899901,6.125112517829367,-2.4140010204375,3.261666666666667e-05,2.5395000000000003,185,30,725.6826246568527,2676.774000000001,mp-1193977,Lu2S3,https://materialsproject.org/materials/mp-1193977,10.981121574321772,-1.836964468316468,-8.318151053474027,-7.620841856182097
-7.282112946875,-233.0276143,5.8427046659086725,-2.7239425335937506,0.0,2.4351000000000003,14,32,501.4791496396266,1764.484,mp-28414,Nd2GeO5,https://materialsproject.org/materials/mp-28414,-11.751460286230841,-59.38075179426423,-19.239754571754414,-57.75375675639214
-5.37516279,-21.50065116,4.9493693117513935,-2.1768859356562507,0.0,2.4122,166,4,87.93146860623135,262.08676928,mp-9035,NaLuS2,https://materialsproject.org/materials/mp-9035,14.142265403387144,6.7831983563268174,-25.18609217561059,-76.64224307348226
-2.4551437035714287,-68.74402370000001,5.515425725275371,-0.5383524662397373,5e-08,0.7644,15,28,1135.0040402279953,3769.878534,mp-570536,Rb2AgAu3I8,https://materialsproject.org/materials/mp-570536,-2.753792061718089,1.3387207643355408,-33.86022555826943,-30.468617833113818
-2.875322851875,-46.00516563,5.01935065480589,-0.09642122441810352,2e-07,0.0,166,16,379.47815502887283,1147.0576,mp-1460,RbGa7,https://materialsproject.org/materials/mp-1460,17.874247507702478,11.076676227611582,24.71066090352553,-41.68639192691044
-4.855583937777777,-43.70025544,3.6208507657394233,-1.5003323572365903,0.0,1.8353,215,9,191.64148667253224,417.8795,mp-546320,Rb4CO4,https://materialsproject.org/materials/mp-546320,-0.3471135854540444,-32.754851200111496,-14.738564629761086,-66.96748950314503
-2.5721428563888886,-92.59714283,4.457200479155078,-0.7581914864655173,0.0,1.1296,62,36,1548.0019537309768,4155.12968,mp-29936,Rb2PdI6,https://materialsproject.org/materials/mp-29936,-1.9897351899044435,-1.587576041037717,-31.413721931327,-31.552776516427627
-6.495617827173914,-298.79842005,5.2542411345337445,-3.0003710111052717,0.0,3.9852,15,46,679.1621785076222,2148.9900384,mp-560263,Pr4Se3(O5F3)2,https://materialsproject.org/materials/mp-560263,-20.769491600555558,-36.0691895050861,-17.01843183361168,-31.632136706180173
-3.4129098594230767,-177.47131269,5.525826930772871,-0.43517975567307704,3.225e-06,0.5507000000000002,62,52,1211.536937841372,4031.6688,mp-1214970,Ag6Ge(S2Br)2,https://materialsproject.org/materials/mp-1214970,15.44973126494648,-14.813722480849721,2.21639272522472,-24.121433130228915
-3.9961127999180337,-487.52576159,4.886246252831927,-0.3498090724016801,0.00011909999999999998,0.2259000000000002,15,122,2674.306582459747,7869.324479999998,mp-1195193,Ag12Sn7H16(Se11N2)2,https://materialsproject.org/materials/mp-1195193,-3.988668956862781,1.082029276383328,-37.58365364183651,-35.20403467983149
-4.433687592708334,-212.81700445,4.537144411001575,-1.092996569676724,0.0,1.6405000000000003,14,48,1142.5315481071918,3121.7758228,mp-16543,Cs3Cu5O4,https://materialsproject.org/materials/mp-16543,-5.756083766642437,-29.57238053853189,-7.114143841006423,-30.38545462603882
-3.624577553214286,-202.97634298,5.258672660200187,-0.615141941934524,0.0,0.3414999999999999,29,56,1439.3648829462945,4558.248,mp-1232060,Mg(InSe2)2,https://materialsproject.org/materials/mp-1232060,22.048302931155337,5.0456640905017025,13.244848175301032,-8.801989502557143
-6.746495172222222,-60.71845655,6.797741272770272,-0.3058632588888888,0.9758836,0.0,87,9,186.89897461028823,765.1075,mp-9948,V5Te4,https://materialsproject.org/materials/mp-9948,20.743775981030236,9.380567393088805,27.04027374867185,-40.77027505129816
-6.0738253675,-170.06711029,3.8242356557360617,-1.0923148622023808,2.999999925,0.003899999999999793,1,28,658.8743148846446,1517.3932,mp-1246474,ZrCrAgS4,https://materialsproject.org/materials/mp-1246474,-2.2097238623406232,9.265855426538726,-14.172455728305518,-70.86619445537853
-2.9777974014285715,-20.84458181,6.6031096003848155,-0.2366367227678577,1e-07,0.428,82,7,198.58238582772915,789.66,mp-3167,Hg2GeSe4,https://materialsproject.org/materials/mp-3167,14.663810287942267,14.640585169229094,-36.31661220717475,-52.48321681784243
-4.9044694025,-19.61787761,3.8571666787404655,-0.5353070004218754,4.0000001,0.0,156,4,101.53424410440444,235.84781428,mp-10232,NaMnSe2,https://materialsproject.org/materials/mp-10232,-0.1514953164718869,9.1400769057894,-17.083033936057742,-69.20002704353823
-2.9268104108333333,-70.24344986,4.0927507114368,-1.34239407401341,0.00078665,2.9701,62,24,995.4770729644728,2453.5644152,mp-640052,Cs2AgBr3,https://materialsproject.org/materials/mp-640052,-6.016779574654286,-7.427656347167348,-28.60927738497612,-47.28184027073026
-6.586022728333332,-39.51613637,6.3641702359061085,-3.3855834692508338,0.0,1.2296999999999998,129,6,105.11077239769655,402.8468064,mp-3931,SmSF,https://materialsproject.org/materials/mp-3931,14.635635673590958,-5.31209218971103,4.493497216030413,-10.221377440456108
-7.901181392916666,-189.62835343,4.718099608128656,-2.595535516083333,7.00002225,2.8881,2,24,363.3705713370623,1032.447,mp-1190148,KGd(MoO4)2,https://materialsproject.org/materials/mp-1190148,-51.58788427258188,-52.82822002146266,-24.88748201518973,-59.412440088604605
-3.2967246725,-79.12139214,4.230420945265301,-0.6871727593333331,5.5e-07,0.9614000000000004,64,24,910.1935277840724,2318.8264,mp-29835,K2SnTe3,https://materialsproject.org/materials/mp-29835,12.800034289588634,1.5278010108734599,-20.6801332281548,-8.182363162293452
-7.0843524375,-28.33740975,2.5824862251154137,-2.1184510945312507,0.00022465,0.0,139,4,155.56855031666746,241.9417,mp-22562,YS,https://materialsproject.org/materials/mp-22562,6.19338420028837,-0.3827125607931975,21.32333104386934,-36.032939254178274
-7.257458157142858,-203.2088284,6.056592521471714,-2.4996825894642862,6.999999799999999,0.0918000000000001,62,28,669.0688593183917,2440.33856,mp-1193160,Eu(HoS2)2,https://materialsproject.org/materials/mp-1193160,9.037701364429026,-3.9640940710929153,-6.797999483435262,-12.927718628266033
-7.127368801,-142.54737602,6.6879177066532325,-3.045332472375,0.0,2.5124000000000004,14,20,395.2569527197799,1591.9204,mp-982366,Tb2S2O,https://materialsproject.org/materials/mp-982366,12.43672035791833,-3.4047693119212457,-6.916192005792423,-20.33946644927116
-3.810194646875,-60.96311435,3.891584182337341,-0.9380163818750002,0.0,1.1092,12,16,636.5886362040857,1491.888,mp-28671,ZrTe2Br5,https://materialsproject.org/materials/mp-28671,-0.8382332049193988,-0.5063065733200455,-31.546764443198576,-34.070635066642794
-3.2315710766666665,-19.38942646,3.5384458438599307,-1.6318411277011495,2.1000000000000002e-06,4.5596999999999985,71,6,181.3783387224161,386.4994519,mp-606680,CsLi2Br3,https://materialsproject.org/materials/mp-606680,-0.5303983698577978,-29.854400371151534,-27.22135226205657,-57.750005422941925
-2.97418475125,-47.58695602,3.81872782352763,-0.4022454064224141,2.575e-06,0.5411000000000001,19,16,720.8889828768854,1657.8224,mp-7444,RbSb,https://materialsproject.org/materials/mp-7444,-2.858802383322997,-7.687267261733407,-20.617010317705965,-15.339240761580164
-4.8285772379999985,-48.28577238,3.6258392548310736,-1.3232531959020002,0.99999985,0.16530000000000022,11,10,202.22122080699253,441.5564,mp-1182237,BaClO3,https://materialsproject.org/materials/mp-1182237,-25.14632351052897,-23.516823444958803,-11.44768932934899,-21.96092884026085
-6.722162898333334,-80.66595478,7.114881602661697,-2.2674096436197932,3.1887494,0.0,8,12,265.64883255485273,1138.22075,mp-1216697,Tm4US7,https://materialsproject.org/materials/mp-1216697,11.551061607250517,-2.802936545889257,-5.165959949831874,-16.98729563195622
-8.13712514925926,-878.80951612,5.825451886118247,-3.445359796219136,0.000186275,2.7579,14,108,1589.8638036488367,5577.5112,mp-1210883,Nd7V2BO17,https://materialsproject.org/materials/mp-1210883,-11.689214908935163,-59.121635382188394,-19.51097471722299,-57.69691879808652
-4.046830722857143,-56.65563012,4.968064137364334,-0.915288641369048,2.57e-05,1.5672000000000006,8,14,345.93892777322543,1034.9933,mp-1216612,TlIn5S8,https://materialsproject.org/materials/mp-1216612,-0.18374846663086167,-3.293432600798492,-22.508324009739102,-32.92349956906715
-3.3915865825,-40.69903899,3.904090345831813,-0.9159416635866666,0.0,2.1702,58,12,396.0293961821054,931.1039999999999,mp-27449,GaTeCl,https://materialsproject.org/materials/mp-27449,-2.081741068300061,4.131837156522448,-11.409158610389044,-14.05919384549868
-2.8717604746666665,-172.30562848,6.508373569320363,-0.40971688125000016,5.3725e-05,0.23550000000000004,1,60,1723.3028789754235,6754.3723088000015,mp-685952,Al2Hg5Se8,https://materialsproject.org/materials/mp-685952,-2.9487003342314746,1.2923405815492974,-11.71908061602288,-14.460156917512244
-5.9986630275,-143.96791266,4.921829161353571,-3.8931536550174712,0.9999998999999999,0.036100000000000236,62,24,406.9877690747591,1206.3096512,mp-1209496,RbCeF4,https://materialsproject.org/materials/mp-1209496,-13.296296171621325,-27.028810025046624,-17.139308193809235,-16.197450329150286
-4.2787674422222235,-231.05344188,5.445056647739616,-0.2326450462962965,0.44849859999999997,0.0,223,54,1348.7138975049547,4422.554,mp-1214614,Ba4Ga3Ge20,https://materialsproject.org/materials/mp-1214614,18.912487541707698,23.720532940690852,16.845440827392196,-46.21320358954134
-3.62261893,-18.11309465,2.8258944137273803,-1.3330113155250003,3e-07,1.8252,156,5,93.70689021602594,159.46976928,mp-1220972,NaLiZnS2,https://materialsproject.org/materials/mp-1220972,-4.017444261442346,-0.5272217369950504,-35.321250640347365,-50.9271920113752
-2.727212815625,-43.63540505,6.144086307058245,-0.027126293125000256,0.0,0.04099999999999948,61,16,404.6836792910482,1497.352,mp-753,ZnSb,https://materialsproject.org/materials/mp-753,21.220322057098862,7.9236182130417685,6.089091798620016,-7.8972692118016035
-5.26248944,-63.14987328,4.042779397208567,-0.4088603933333334,7.0455160999999995,0.04239999999999977,191,12,210.57270184030514,512.6642373999999,mp-21407,EuAl9Co2,https://materialsproject.org/materials/mp-21407,16.260848841634385,21.28903296434927,24.47039963324215,-39.82490281441434
-4.94570676,-14.83712028,3.966491885217743,-0.6474622866666664,4.0000001,0.0,12,3,88.67003565362309,211.8041,mp-567624,CrBr2,https://materialsproject.org/materials/mp-567624,-4.082704373775366,-2.648623567380605,-14.785097568585758,-32.123450277710425
-7.956503465,-31.82601386,5.7601922818961695,-1.5169716049399993,0.0,1.1194999999999995,186,4,88.16255275857952,305.82434,mp-567290,LaN,https://materialsproject.org/materials/mp-567290,-9.723292025933942,-61.759466070245416,-12.824675636828607,-66.88840739960888
-2.5677477585,-51.35495517,4.442507858735841,-0.36097536905747096,0.0,0.5004999999999997,11,20,849.9967611998915,2274.0310228,mp-22506,Cs6InAs3,https://materialsproject.org/materials/mp-22506,-5.0100404678257355,-24.441331298322755,-27.26669818550699,-56.68897128656728
-4.206029236666667,-50.47235084,4.931330176428311,-1.3623118869980242,0.0,1.9664,63,12,419.6387790600131,1246.2082038,mp-11118,CsPrCdSe3,https://materialsproject.org/materials/mp-11118,10.260046348078019,0.6263017903443717,-3.474514051719584,-19.848900558012488
-6.592759963611113,-474.67871738,5.0489466960493115,-2.8401121883667364,0.0,3.7527,14,72,1124.2533273739703,3418.3448784,mp-555955,LaSeO3F,https://materialsproject.org/materials/mp-555955,-20.912594420127608,-36.135324494168344,-17.430287104245142,-31.579895547986048
-5.604182793928572,-156.91711823,5.106999925600861,-0.3328624552678566,8.798452099999999,0.0,62,28,648.1611555295957,1993.4243600000002,mp-640047,Mn2GeSe4,https://materialsproject.org/materials/mp-640047,16.0863196117945,23.98566139231452,-3.9973304127952365,-74.15754809216133
-4.3074635765,-172.29854306,3.4095578796128523,1.2324122234286676,1.00000075,0.0,62,40,1008.1371208933288,2069.9916,mp-1197559,Ag2C4Br3N,https://materialsproject.org/materials/mp-1197559,-2.6589275037383238,3.2272301499998424,-36.075787172511376,-28.129201877926462
-7.0283639301999985,-351.41819651,4.154693007821551,-3.0225583246452,2.0000001,0.6994000000000002,1,50,716.1088360426895,1791.7148000000002,mp-1256705,Sr7SiB3NO13,https://materialsproject.org/materials/mp-1256705,-18.222075938977078,-32.160665623917126,16.61005389377509,-40.725547866754155
-3.01673732625,-168.93729027,3.71320927538928,-1.1620642641810346,5.535e-05,2.1926,14,56,2180.64275471439,4876.2376,mp-1194576,Rb3Sb2Br9,https://materialsproject.org/materials/mp-1194576,0.364818105606157,-0.6802006426218842,-31.58612708349661,-31.038753612254077
-6.4852565454999995,-129.70513091,6.259190687242043,-2.4554124549375005,0.99678605,0.0,11,20,454.93351067616163,1714.8139999999999,mp-1105574,Ce(LuS2)3,https://materialsproject.org/materials/mp-1105574,9.129825572111859,-3.1329479326254934,-5.425301069207404,-14.746724913406966
-6.275159669,-62.75159669,5.790144766761086,-2.3383156689375,0.0,0.7775999999999996,63,10,238.26504764854784,830.808,mp-1205870,NdLuS3,https://materialsproject.org/materials/mp-1205870,11.015844692378659,-2.447510764178501,-7.193153214274467,-12.419959691898868
-3.9462400355555562,-213.09696192,5.3146146079238,-0.09769525921775192,7.18e-05,0.0,155,54,1377.5919740086385,4409.0324,mp-1219674,Rb8Hg3Ge43,https://materialsproject.org/materials/mp-1219674,15.330882394266533,21.38081840931525,15.783410180316505,-46.566498413423474
-3.954143425,-47.4497211,4.8767317712734215,-0.30716547357638885,0.0,0.5333000000000001,62,12,292.6343297640339,859.4192,mp-984714,AgAsS,https://materialsproject.org/materials/mp-984714,0.6262627203723296,9.635530174914336,-16.460812554895842,-71.7981259261566
-5.3672234375,-21.46889375,4.759559147407924,-2.18086922065625,0.0,2.3621,166,4,89.33340584145279,256.05397928,mp-9076,NaTmS2,https://materialsproject.org/materials/mp-9076,14.166528537817298,6.770790090628352,-25.26020621924273,-76.63393573464978
-3.623172797692308,-47.10124637,5.729611412044879,-0.02662096115384626,0.00024430000000000003,0.5362999999999998,8,13,404.2114446262709,1394.71247,mp-1217385,Te7As5I,https://materialsproject.org/materials/mp-1217385,10.739769514820974,8.538160929829127,-1.9073536774372968,-14.97668662229107
-6.30906763,-31.54533815,4.384712107487728,-1.6823531611562499,0.0,0.6197999999999997,71,5,123.75968328185785,326.791824,mp-1219395,Sc2Se3,https://materialsproject.org/materials/mp-1219395,20.4755638488592,10.878218552193186,28.67395435992761,-42.07913679981885
-5.445734235263157,-103.46895047,6.704235375771598,-0.31467585631578965,9.9e-05,0.0,204,19,551.4029630648432,2226.22604,mp-1211984,La12Ni6Pb,https://materialsproject.org/materials/mp-1211984,33.93215504661504,-48.0992342399881,30.55571571691863,-29.212138051567997
-3.182829839285714,-44.55961775,3.5315693604883234,-1.4776384992857143,0.0,3.4671000000000003,74,14,336.47695371723637,715.6060000000001,mp-1222739,Li2MgBr4,https://materialsproject.org/materials/mp-1222739,-0.8692223170379167,12.319561833353989,-27.350316543831248,-69.67616190826033
-6.036229358,-30.18114679,5.428704439911956,-0.7302299569261078,5.0999999999999995e-06,0.0,139,5,108.04531862987213,353.22632400000003,mp-1207113,Rb(PRh)2,https://materialsproject.org/materials/mp-1207113,15.295671797651806,22.590280745246826,28.32163553635084,-44.479814021295795
-8.177533266000001,-122.66299899,6.655486593225522,-3.72821156925,0.0,3.5619,12,15,246.8646814914328,989.4405,mp-555159,Pr2O3,https://materialsproject.org/materials/mp-555159,-8.88743335717093,-62.221482309803,-0.5392291718852403,-59.01233002820505
-4.983923357619047,-104.66239051,4.54418792283674,-3.53428546293619,0.0,4.7912,189,21,296.9715607748241,812.6846448000001,mp-28802,Sr4Zn3F14,https://materialsproject.org/materials/mp-28802,-14.019964990732882,-26.222138944341026,14.557216210507296,-46.858624957560046
-4.79784407925,-191.91376317,5.103254710461207,-0.4620990082020001,5e-07,0.10890000000000022,206,40,1145.3520077430667,3519.9552,mp-1214623,Ba3N2,https://materialsproject.org/materials/mp-1214623,0.2575275949688132,-27.807389546116585,-25.901918469396968,-34.31533444486226
-6.361025069,-127.22050138,6.768277946290663,-2.455409469437501,0.0,0.6326999999999998,62,20,422.6869860907481,1722.852,mp-1106290,Er2S3,https://materialsproject.org/materials/mp-1106290,14.163452238230946,-4.809751402140256,-0.7568923988570306,-13.689119542633259
-4.793692619310344,-139.01708596,3.8044515578152587,-1.542857837612069,0.0,1.1617000000000002,2,29,940.1707664115787,2154.0199,mp-627575,K4Zr6CBr18,https://materialsproject.org/materials/mp-627575,8.023579128919799,-0.2335299123348959,-1.673790575178446,-22.27244407287323
-3.8086274739999997,-76.17254948,4.206711822347535,-0.7665446640689655,4.0000004,0.15989999999999993,5,20,818.1721869571852,2072.7092399999997,mp-27442,RbCrI3,https://materialsproject.org/materials/mp-27442,9.475875897182128,7.644509864600043,-19.846973010913672,-14.875602925579535
-5.102161216136363,-224.49509351,5.4344109727462016,-1.5882252429308712,0.0032575000000000004,0.0,55,44,994.0702900944193,3253.2728,mp-1197305,Tb4In5S13,https://materialsproject.org/materials/mp-1197305,9.466996477904221,-4.466802282270283,-5.831613219866872,-13.218787580600946
-8.091725944,-161.83451888,5.20366416514273,-3.4482111735500003,0.0,3.751,12,20,322.81891354079056,1011.62404,mp-554034,KLa2NbO6,https://materialsproject.org/materials/mp-554034,-12.35364429427526,-59.53973341208843,-18.715274742640304,-57.12528822162105
-7.977274325,-127.6363892,6.066582150316353,-3.18769906484375,1.00000005,0.8460999999999999,87,16,248.3989007386265,907.49588,mp-1105399,La2MoO5,https://materialsproject.org/materials/mp-1105399,-11.196989332235011,-28.192610540764214,-1.949161251053265,-8.224759225301009
-8.087630312857142,-113.22682438,6.075949936602807,-1.9534552273214283,14.000000199999997,1.4052000000000002,122,14,303.45316501777637,1110.3419999999999,mp-677075,Gd2CdS4,https://materialsproject.org/materials/mp-677075,15.915209659608642,-5.433092867608902,9.2474112674035,-8.915118616659301
-7.129128763571428,-299.42340807,3.656425272435239,-3.4422875663151697,1.25e-06,5.314,1,42,587.5957703844173,1293.8569784,mp-1218615,Sr3Ca2P3O12F,https://materialsproject.org/materials/mp-1218615,-20.15594360728923,-32.57301654332142,-11.626735810217754,-33.97549105703387
-7.574989498333332,-45.44993699,5.343841354150523,-3.1151821933333332,0.99999995,0.030499999999999968,11,6,106.21318771646564,341.80854,mp-1206559,LaO2,https://materialsproject.org/materials/mp-1206559,-10.034354971011746,-60.54310445735157,-33.50240915256049,-47.35845473902048
-3.648553956,-36.48553956,4.097700713969309,-1.2719926186913793,2.9999682,1.3505999999999998,225,10,350.19130893240845,864.1646730800002,mp-1112009,Cs2NaMoBr6,https://materialsproject.org/materials/mp-1112009,-0.05486202324170805,13.310590107863092,-29.16797435915667,-70.40127242121387
-4.4175032925,-53.01003951,9.49905458512808,-0.4328612324999999,0.0,0.040000000000000036,164,12,341.70347688824637,1954.7026,mp-9251,TlTe3Pt2,https://materialsproject.org/materials/mp-9251,22.314694814737738,4.234968832583797,16.011030672525127,15.17265486124859
-6.259689780357142,-350.54262769999997,5.431496077197098,-1.819269537857144,0.0991209,0.0,176,56,940.0374089291523,3074.7904,mp-1210868,Nd7(BrO6)3,https://materialsproject.org/materials/mp-1210868,-14.181881266852965,-27.863035418070112,-17.48510157613123,-16.78890417805161
-6.412708010384615,-166.73040827,2.9068309772591348,-2.6068794800879127,0.0,3.9056,11,26,467.9738080338823,819.204324,mp-756876,K3BaPCO7,https://materialsproject.org/materials/mp-756876,-28.743052749936034,-7.947047940366832,-22.330591638932567,-30.44865353486273
-5.416645685416667,-129.99949645,9.377391962411807,-0.541791953750001,0.0,0.3080999999999996,61,24,496.91125304436827,2806.156,mp-29397,SiTePt,https://materialsproject.org/materials/mp-29397,26.914915298911144,26.25840093319682,37.872832587916406,-25.446227353351656