energy_per_atom,energy,density,formation_energy_per_atom,total_magnetization,band_gap,sgr,num_sites,cell_volume,weight,mp_id,formula,URL,tsne_cry_0,tsne_cry_1,tsne_xrd_0,tsne_xrd_1
-8.4542154175,-33.81686167,10.546947629491417,-0.5647808000000012,2.49e-05,0.0,225,4,72.78544018561091,462.29821,mp-865277,TmZrRu2,https://materialsproject.org/materials/mp-865277,96.78471195299078,2.5468409832638947,73.39543725544307,55.69457483826327
-9.188268198333333,-110.25921838,11.806354682520507,-0.2400101466666662,0.9070434,0.0,38,12,150.64543831420602,1071.082,mp-1224912,FeSiW,https://materialsproject.org/materials/mp-1224912,69.4979976114348,50.5648135656524,72.00219542081942,18.913883517010312
-8.187424461666668,-98.24909354,6.030212906244983,-0.06583271325333348,0.007959625,0.0,58,12,92.36831216206406,335.4336,mp-1080202,FeN2,https://materialsproject.org/materials/mp-1080202,28.928667848630816,53.05310913913181,41.222202125915416,27.93077670505713
-5.543977205,-66.52772646,4.6038338351984605,-1.647361142788333,5.999999900000001,0.0,12,12,107.79085177027036,298.849445,mp-756973,Li3Mn(CuO3)2,https://materialsproject.org/materials/mp-756973,14.652454255886203,80.09416024094232,22.828983199704343,81.63976263140135
-8.173557395,-81.73557395,5.944717160806597,-0.17321751995200002,3.305593,0.0,36,10,109.82307639232882,393.16578,mp-1246288,Mn2NiN2,https://materialsproject.org/materials/mp-1246288,25.197461184230534,52.96810829613858,50.68044681195338,4.368010945465099
-9.59878742375,-76.79029939,11.016998575217157,-0.12098829125000066,2.185e-05,0.0,194,8,119.40942151941958,792.23276,mp-1186229,NbRu3,https://materialsproject.org/materials/mp-1186229,65.50158085727611,62.890396482174,89.7812000643114,16.02218785466984
-7.369246492,-36.84623246,3.5172790309929454,-2.9331049145833346,0.0,1.6075,221,5,56.733431378708325,120.1702,mp-1016830,MgTiO3,https://materialsproject.org/materials/mp-1016830,25.39794817581052,-95.47705656101252,62.36916895607462,-41.64467794699954
-5.878728750714287,-164.60440502,4.647811059853884,-1.6624857446428578,5.7170038,0.0,8,28,269.05362471408785,753.074985,mp-758266,Li4V2Co3Cu3O16,https://materialsproject.org/materials/mp-758266,-2.818628692247096,72.14995140116203,2.7255830505227663,60.769415008445776
-5.4741189100000005,-16.42235673,9.686891139352474,1.8828452226190475,1.9366781000000002,0.0,216,3,72.34212887676902,422.013762,mp-631533,PPbW,https://materialsproject.org/materials/mp-631533,85.62856475606523,1.3780191056727358,65.75347961360939,45.09468875291371
-4.61112608,-18.44450432,18.905692823038002,0.6482628737499994,1.3790358,0.0,139,4,68.6087722845392,781.129707,mp-1186365,OsAu3,https://materialsproject.org/materials/mp-1186365,69.10411967897784,56.743321941138475,56.478633969517276,41.28396352445513
-5.730979635,-11.46195927,11.557389106522946,-0.1456051433333334,0.8928733,0.0,187,2,35.177123127019684,244.833569,mp-1217014,TiAu,https://materialsproject.org/materials/mp-1217014,51.577943122115144,17.937673059673592,67.98335325224133,19.260046691411052
-3.860800761,-77.21601522,8.376283860769911,-0.3810573403333336,5e-08,0.0,229,20,445.24806593697235,2245.972,mp-568655,In7Pd3,https://materialsproject.org/materials/mp-568655,47.787493616018885,-5.903865567944268,50.45134580657793,2.8026936743877187
-5.6408776455,-112.81755291,4.562503377448916,-1.7606985044710002,11.000000300000002,0.2084000000000001,2,20,174.9361716141454,480.65529,mp-754927,Li5Mn2Ni3O10,https://materialsproject.org/materials/mp-754927,2.61057494831131,82.53019990145728,8.262268096422963,83.99667439297542
-10.37495759,-41.49983036,10.826255534044806,0.10948582000000152,4.7499999999999996e-05,0.0,187,4,59.809284126113994,389.94,mp-1217419,Tc3Mo,https://materialsproject.org/materials/mp-1217419,65.49462692547431,62.90118486412052,89.8308089797071,15.905031255927193
-7.019014434705883,-238.64649078,2.5384162555077534,-2.8845528809405883,0.0,5.7353999999999985,36,34,311.68297164264044,476.460416,mp-707304,Be4Si2H2O9,https://materialsproject.org/materials/mp-707304,-61.55624731132257,29.16764471858362,-67.85948261692478,39.37604987337911
-8.096723458,-40.48361729,6.894773854647995,0.5162359542499999,8.2831192,0.0,215,5,56.69155439223374,235.3907,mp-1246,Fe4C,https://materialsproject.org/materials/mp-1246,32.36440051743788,56.71789379546119,88.22085900574791,9.589585075392009
-5.480713921666666,-32.88428353,10.163474089113203,-0.4155884088888886,0.00020390000000000002,0.0,216,6,85.70396563521379,524.5586000000002,mp-1206270,LuInNi4,https://materialsproject.org/materials/mp-1206270,70.71972466992473,48.05425892549258,73.54007860550419,23.673326009507843
-5.784815481875,-185.11409542,4.227277848454486,-1.8494665184975,18.0,0.3604000000000003,1,32,284.0059730279212,723.001465,mp-1176034,Li9Mn2Co5O16,https://materialsproject.org/materials/mp-1176034,18.029406799571234,90.39028743317171,8.873344571963099,90.413965681473
-5.799033330625,-185.56906658,4.2108138834660425,-1.8636843672474992,24.000001,0.43000000000000016,2,32,285.1164149818629,723.001465,mp-1175494,Li9Mn2Co5O16,https://materialsproject.org/materials/mp-1175494,13.850007062862135,88.79261098964096,6.504416003996433,92.17843609936831
-5.809954182857143,-162.67871712,4.471732917055888,-1.5872901139971418,16.0374201,0.0,8,28,273.7697606329196,737.2456900000001,mp-765636,Li4Mn2Fe3Ni3O16,https://materialsproject.org/materials/mp-765636,-3.013500856021648,72.32139872598098,2.5538116686755865,60.97448825334741
-6.228201963749999,-448.43054139,3.6433373248730807,-2.2184767824972216,29.000001399999995,1.0373,1,72,629.5268240854108,1381.225325,mp-768825,Li24Mn5Cr7O36,https://materialsproject.org/materials/mp-768825,-11.014586572399066,99.3639798496518,-12.47744899499168,97.75792595454209
-6.632818718333334,-39.79691231,7.735119723983495,0.19658643,2.2744966,0.0,160,6,135.4816568003339,631.1003900000001,mp-1224254,HfZr(CoSb)2,https://materialsproject.org/materials/mp-1224254,86.8445655407032,2.3346026804563667,58.05769098046457,68.17906894627423
-8.661053855,-34.64421542,13.175321252501444,-0.4027740562499993,4.14e-05,0.0,225,4,69.84189242295206,554.151,mp-862684,LiHf2Os,https://materialsproject.org/materials/mp-862684,88.63633481251158,3.183846776347957,57.309172822304184,67.92835609216522
-9.5083247595,-190.16649519,5.634772628220914,-0.3706121230000008,0.01450645,0.0,164,20,208.4623748920666,707.3836,mp-1216509,V3C2,https://materialsproject.org/materials/mp-1216509,29.73636074342212,59.79453169852648,82.90966739969446,21.365742703720237
-6.1857345975,-24.74293839,10.116683006119649,-0.6311135075000003,6.87e-05,0.0,225,4,65.37167800946104,398.27099999999996,mp-867119,LiHfPd2,https://materialsproject.org/materials/mp-867119,89.11001580864092,15.823298797335465,47.87044863824986,62.574446172955554
-5.7894842675,-69.47381121,5.003739995850661,-1.3189300366666654,2.0,0.0,166,12,141.5562906503278,426.554785,mp-752854,Co3SbO8,https://materialsproject.org/materials/mp-752854,4.66124320840943,70.83797562209112,18.179823055707384,82.78907969859532
-3.115010195,-43.61014273,7.121196313101177,-0.0955720882142853,9.000000000000001e-07,0.0,164,14,230.78781033400352,989.73,mp-1215657,Zn9Ga3Mo2,https://materialsproject.org/materials/mp-1215657,57.58743157194,52.336516760288966,81.97964644280937,9.558011488903462
-3.3430452825,-13.37218113,7.627414884712846,-0.5388169949999999,7.9e-06,0.0,216,4,72.41110156076515,332.608569,mp-30404,Li2SbAu,https://materialsproject.org/materials/mp-30404,85.56031623807567,1.5660625451150874,66.21567708669764,44.510592014521116
-5.1268133050000015,-102.53626609999999,2.841246974347849,-3.4868087773140006,0.0,7.2179,166,20,264.2950446996721,452.21911560000007,mp-15549,K2LiAlF6,https://materialsproject.org/materials/mp-15549,-13.048591677833093,51.92078589924954,-2.399297108255287,57.470765337948905
-5.7976469403125,-185.52470209,4.252181997485444,-1.8622979769349997,16.0000002,0.3919999999999999,2,32,282.34260888166585,723.001465,mp-1175421,Li9Mn2Co5O16,https://materialsproject.org/materials/mp-1175421,18.371189406994585,88.37873662638296,10.397961452624523,91.23705463125799
-8.77365741,-35.09462964,12.903121813888525,-0.20858604187499985,3.12e-05,0.0,225,4,70.79751971448076,550.1279999999998,mp-861875,LiHf2Re,https://materialsproject.org/materials/mp-861875,88.7021396989699,3.152489584067095,57.17610214628794,67.90419581811034
-2.9754485085714286,-20.82813956,1.8375940832514384,-0.19265072142857115,0.0,0.21059999999999945,160,7,129.1928112059751,142.968,mp-1222684,Li2Mg3Si2,https://materialsproject.org/materials/mp-1222684,36.23982986151316,38.23740793371931,40.817676190342176,55.27556247836245
-6.038231186956523,-138.87931730000003,2.1460024398190405,-0.05624264594927522,1.1599999999999999e-05,0.0,65,23,220.67448324934392,285.18930784,mp-262,Na3B20,https://materialsproject.org/materials/mp-262,7.252125004520076,57.38225316770559,-1.5555986267305548,53.99129589348213
-4.704289857962963,-254.03165233,3.1462312216878203,-0.16639376537036948,1.98e-05,0.0,194,54,870.1528656214583,1648.6827756,mp-30335,Al23V4,https://materialsproject.org/materials/mp-30335,55.16797267587607,49.51983162951976,78.27300472965341,4.9706198276244935
-7.1413826525,-28.56553061,9.070292843337329,-0.8824300674999996,0.0003451,0.0,225,4,67.64178922903457,369.476912,mp-862623,ScSnRh2,https://materialsproject.org/materials/mp-862623,95.60912870059721,8.620748750753599,62.429742138620796,65.09720112051079
-5.78318303,-23.13273212,4.331939384701185,-0.21475102264333398,9.55e-06,0.0,194,4,37.46993609110986,97.74988,mp-998969,TiH,https://materialsproject.org/materials/mp-998969,30.02830164751615,59.62637963843379,68.7287913105977,9.597152329346391
-8.01912346,-48.11474076,10.276543772237163,-0.17065727583333276,8.1271275,0.0,216,6,90.52687052648709,560.2417800000002,mp-1224689,GdErCo4,https://materialsproject.org/materials/mp-1224689,80.12039716367795,29.27983026011713,71.37619644169902,26.1303520412676
-7.321324674137932,-212.31841555,3.1339180121375003,-3.375924854939655,0.0,4.4026999999999985,160,29,313.5589275903963,591.7764938800002,mp-759230,NaAl11O17,https://materialsproject.org/materials/mp-759230,3.086318910182523,61.85359824778558,7.975984647078548,52.750877890499495
-6.918409193214287,-193.71545741,3.63760023719578,-2.606203413928571,1.999999925,0.653,62,28,273.7428531917666,599.6649543999999,mp-770545,LiAlCrO4,https://materialsproject.org/materials/mp-770545,-6.931320645264975,68.71337404174051,-8.059366475739852,62.52162342406756
-5.095985105,-20.38394042,8.969188910361769,-0.4432410199999994,1.55e-06,0.0,194,4,84.4896460391126,456.36,mp-1769,SbPd,https://materialsproject.org/materials/mp-1769,35.55292888262564,26.62778098650391,74.72569228803185,15.891268038623412
-7.651009523529412,-130.0671619,8.275528284047908,-0.6434583976470587,1.2e-06,0.0,191,17,234.53284551696566,1168.8272,mp-1216181,Y2(B2Rh3)3,https://materialsproject.org/materials/mp-1216181,53.50710827440422,19.055806361305613,48.87382624537806,7.672375276487676
-6.841446993333334,-20.52434098,8.648905773739044,-0.13883517000000012,0.006895699999999999,0.0,139,3,46.31282126405157,241.22,mp-10201,Ge2Mo,https://materialsproject.org/materials/mp-10201,54.47466807102599,54.494976191327474,75.58804521207423,7.01805424235043
-5.7809346609375,-184.98990915,4.223751911176387,-1.845585697559999,20.000000399999998,0.3111999999999999,1,32,284.2430577972355,723.001465,mp-1175988,Li9Mn2Co5O16,https://materialsproject.org/materials/mp-1175988,15.442511696840278,89.7834573391093,6.953102473839498,91.92808752087835
-7.177753054927536,-495.26496079,3.498442975674953,-3.369851282028985,2e-07,3.7842,8,69,666.2697431231421,1403.7048492000001,mp-530826,Mg7Al22O40,https://materialsproject.org/materials/mp-530826,2.0621426033995993,62.53423898541094,8.679619353276758,52.62813565398971
-8.698388375,-34.793553499999994,8.073101742663367,-0.3904440600000001,1.84e-05,0.0,225,4,69.75726960112195,339.1414,mp-1188020,Zr2TcNi,https://materialsproject.org/materials/mp-1188020,99.72301536908087,5.992649319462677,66.06799783367889,62.2595571686913
-6.013932163928572,-336.78020118,4.339111021385521,-1.659721184642857,10.500000025,0.0,1,56,567.4128120514323,1482.69154,mp-1178263,Li2CrCo3O8,https://materialsproject.org/materials/mp-1178263,0.5059744968991132,68.22969489554147,16.868958400081155,82.73190027869877
-5.142665833000001,-51.42665833,3.0514421779010408,-3.1377510893140004,2.0000001,0.0,225,10,136.0832600246952,250.06951919999997,mp-1111921,K2LiVF6,https://materialsproject.org/materials/mp-1111921,-13.17670008152016,51.96372138477105,-2.8685952850502616,58.34048636822156
-6.194862391538462,-80.53321109,4.0033860565979245,-1.6778670219230765,7.9999991999999995,0.0,166,13,162.36838309950986,391.4532,mvc-11662,Ca(FeO2)4,https://materialsproject.org/materials/mvc-11662,7.709840480229657,73.40092060088809,12.888389730583718,66.91853887041185
-6.040197436785713,-169.12552823,4.462858919832212,-1.8402138358333329,6.9999868,0.0,8,28,272.4993069895573,732.3681849999998,mp-759505,Li4Ti2Co3Ni3O16,https://materialsproject.org/materials/mp-759505,-2.6319417514659147,72.20071170953918,2.740381812218975,60.77261540708511
-5.81623039,-93.05968624,4.464512325423422,-1.839447683245,5.000000099999999,0.25570000000000004,74,16,142.4619504364504,383.02209,mp-753347,Li2MnNiO4,https://materialsproject.org/materials/mp-753347,13.867891794659714,79.20542231291019,23.414883623646173,81.31818806632836
-6.250953717142857,-87.51335204,5.221213834084028,-1.8044176278571424,3.00000015,0.4903999999999993,2,14,132.8411992268368,417.6910572,mp-1248269,Al(CoO2)2,https://materialsproject.org/materials/mp-1248269,19.758746033732923,52.653282777947496,4.335858909888295,49.8803099062955
-6.8711659371875,-219.87730999,2.304069874910503,-0.1724305918229163,0.0,2.6604,44,32,247.20727038009483,343.0108,mp-638070,LiB13C2,https://materialsproject.org/materials/mp-638070,5.6441609621120765,58.11221486782215,0.7525422726145257,54.30757179594839
-4.809601506666667,-57.71521808,3.2473755564499616,-2.769327707475,1.9999784999999999,1.9047,123,12,104.51432639883708,204.389816,mp-753377,Li5NiOF5,https://materialsproject.org/materials/mp-753377,27.652843331562327,66.78649167513814,-4.795526402071342,65.46917394556407
-5.803643550625,-185.71659362,4.242731295310716,-1.8682945872474992,15.9999995,0.5921000000000003,1,32,282.9715282550718,723.001465,mp-1175688,Li9Mn2Co5O16,https://materialsproject.org/materials/mp-1175688,19.11729633285536,89.49765921086085,10.361344761171779,89.9960538744903
-3.8898328525,-31.11866282,14.56212347121851,-0.06851969249999977,3e-07,0.0,123,8,123.71541274886513,1084.924276,mp-1225771,Cu3PdAu4,https://materialsproject.org/materials/mp-1225771,55.581137315503405,41.57104384291622,78.3812156299651,11.637324876741483
-5.8432452616666675,-35.05947157,10.345712613601787,-0.4650536800000005,1.75e-06,0.0,227,6,90.62664253867298,564.6342400000001,mp-673,HoNi2,https://materialsproject.org/materials/mp-673,80.10362734193349,29.276342013902287,71.28684971408629,26.49243584771216
-6.92646632,-55.41173056,9.443342934649015,-0.2554091287500002,13.552538199999999,0.0,65,8,122.54697692373304,696.914135,mp-1078895,Mn3Pd5,https://materialsproject.org/materials/mp-1078895,58.64764730173174,49.74288499129182,77.60531591410647,10.769540227576144
-3.4694798325,-13.87791933,4.6112340241762615,0.04876594583333338,0.0001455,0.0,221,4,67.99287354413488,188.8128158,mp-1183130,Al3Ag,https://materialsproject.org/materials/mp-1183130,47.43595638468194,36.48594591106678,57.92513091935688,33.448870442705285
-3.666987565,-29.33590052,6.370246437018932,0.0818445204166669,0.0010885,0.0,139,8,173.9644258406517,667.3714,mp-1215485,ZnIn2GeAs4,https://materialsproject.org/materials/mp-1215485,23.777277275098392,22.446207182203146,57.779332115378686,-26.89487851549005
-7.2135048461052635,-685.28296038,3.47232955521817,-3.296279228947369,0.8527013000000001,0.17269999999999894,8,95,925.2914161592768,1934.8637124,mp-530754,Mg5Al34O56,https://materialsproject.org/materials/mp-530754,2.419982494824223,62.38217074986672,8.526008350202478,52.54646737022345
-2.62972587375,-21.03780699,11.04927616548218,-0.15008398624999986,0.0,0.0,59,8,117.62212793629746,782.6611379999998,mp-12759,Zn2CuAu,https://materialsproject.org/materials/mp-12759,55.309392721122656,57.42690373984991,81.0133048186802,9.136568213670474
-5.472969123333333,-32.83781474,9.933668131246641,-0.40091988138888895,8e-07,0.0,216,6,86.39815502269217,516.8506,mp-1024983,ErInNi4,https://materialsproject.org/materials/mp-1024983,70.69172958068405,47.82385952908203,73.56837675553923,23.805635549255715
-6.6389620725,-26.55584829,5.871080977573451,-0.028151973333333306,1.8790116000000001,0.0,225,4,73.08957921324999,258.41900000000004,mp-998979,Ti3In,https://materialsproject.org/materials/mp-998979,89.28596073706234,-1.1029333011949092,68.13681912781432,47.692233088184366
-5.7965748128125,-185.49039401,4.251021742108662,-1.861225849434999,16.000000099999998,0.43510000000000026,1,32,282.41967024477407,723.001465,mp-1175786,Li9Mn2Co5O16,https://materialsproject.org/materials/mp-1175786,18.70681082849984,88.68730808030712,10.533247115368564,90.67242082077908
-5.827116941785714,-163.15927437,4.178657135270922,-1.886603746943571,9.9999999,0.8125,1,28,248.4171818473848,625.12847,mp-1174608,Li4MnCo2O7,https://materialsproject.org/materials/mp-1174608,9.770570145448039,89.06725827878765,5.942164250462199,96.92459069958076
-9.446578499500001,-377.86313998,6.388189258414832,-0.4835673084519996,1.5257788625,0.0,199,40,382.6336308040883,1472.0135999999998,mp-1097796,Cr3N2,https://materialsproject.org/materials/mp-1097796,30.432089503043734,55.652835891292355,70.10246679282095,0.05867784812766943
-7.350153020909091,-80.85168323,3.914402867236488,0.5541894181336356,0.1218629,0.0,155,11,100.733143553934,237.4591,mp-1246940,Ni2(CN2)3,https://materialsproject.org/materials/mp-1246940,8.80420858887762,73.23216063668644,-27.303320611922107,59.84066757620512
-5.61321810625,-44.90574485,4.439726898974387,-0.3759075937500001,7.400000000000001e-06,0.0,123,8,130.55229100777748,349.0532316,mp-1215336,ZrAl6Mo,https://materialsproject.org/materials/mp-1215336,47.088127136928854,37.4655841875711,57.2497653428557,32.485503787309355
-5.846138644583332,-140.30732747,4.115884340801805,-1.8987398077883324,14.000000400000001,0.0,5,24,212.7193642474133,527.2554749999998,mp-1174912,Li7Mn2(CoO4)3,https://materialsproject.org/materials/mp-1174912,15.918095052769724,89.43918380115973,7.812535167509197,92.69967296847796
-8.75257592,-43.762879600000005,9.244728960964448,-0.11402449174999987,4.28e-05,0.0,166,5,57.804241402974206,321.8139,mp-1226355,Cr2Rh2C,https://materialsproject.org/materials/mp-1226355,61.591311362868296,62.06249657956587,85.88164358169513,12.327872455261614
-6.0633950275,-24.25358011,10.554103834709023,-0.06483084750000145,3.8039875,0.0,166,4,59.01746906741255,375.105,mp-1224883,FePd3,https://materialsproject.org/materials/mp-1224883,62.92825519870845,60.37950715734892,85.50575854920504,13.026796676628326
-7.25902839125,-406.50558991,3.5173107968104738,-3.3690419569642858,9.25e-07,5.251,212,56,509.57830560598836,1079.3755720000001,mp-530399,LiAl5O8,https://materialsproject.org/materials/mp-530399,3.4456950286934616,62.0086632567276,8.154549031883363,52.400579687655046
-2.812462925,-11.249851699999999,3.1766493712348485,0.16828688000000014,0.3303041,0.0,225,4,68.92138526006892,131.84819499999998,mp-978276,Mg3Co,https://materialsproject.org/materials/mp-978276,92.54667391119926,9.314716899586617,66.88668120979465,49.30426135734782
-5.805190990892856,-325.09069549,2.450260890542815,-2.069968314051428,0.0,3.8282,1,56,422.90338898739196,624.0284687999998,mp-626481,Al(HO)3,https://materialsproject.org/materials/mp-626481,-9.851881645632412,77.65938222821516,-27.66369902729753,75.89789483600228