energy_per_atom,energy,density,formation_energy_per_atom,total_magnetization,band_gap,sgr,num_sites,cell_volume,weight,mp_id,formula,URL,tsne_cry_0,tsne_cry_1,tsne_xrd_0,tsne_xrd_1
-8.595149125,-85.95149125,6.916219930539542,-0.3284616779519993,6.530595900000001,0.0,139,10,94.51167131251877,393.64537,mp-1246571,Mn2CoN2,https://materialsproject.org/materials/mp-1246571,30.540589451900487,56.98784408553011,84.75096273700149,18.609855259704442
-6.6795690175,-26.71827607,7.240183989399352,0.3585185762499989,1.3840332,0.0,221,4,60.83186603942347,265.2355,mp-11312,V3Cd,https://materialsproject.org/materials/mp-11312,57.43758667893707,55.574320994727394,80.08140250208399,14.1800692487139
-8.7796770475,-35.11870819,13.34678847619969,-0.8951333699999999,1.1e-06,0.0,221,4,67.15322570078807,539.75238,mp-30825,PaRh3,https://materialsproject.org/materials/mp-30825,63.786325124245465,55.25154525036546,57.07037822608881,36.46696446456148
-7.112352886666668,-21.33705866,2.7966431904100317,-1.801943056153333,2.9999995999999998,1.9256,166,3,51.61975100433283,86.93684499999999,mvc-12823,MnO2,https://materialsproject.org/materials/mvc-12823,6.621105540872853,70.68811137544499,14.369394025516597,84.78093632819238
-4.9599470725,-39.67957658,13.717255775917087,0.3244219874999992,0.20013370000000003,0.0,47,8,123.69976613435408,1021.849707,mp-1224715,Fe2(PdAu)3,https://materialsproject.org/materials/mp-1224715,57.513196875130156,58.052176696002505,80.90747517922918,12.761550833984703
-5.001192369,-50.01192369,2.7099938013681086,-3.372531513064001,0.0,5.8892,225,10,128.64076202913674,209.94126564,mp-1111945,Na3AlF6,https://materialsproject.org/materials/mp-1111945,-12.760782968266664,51.91285383531433,-2.415299545824376,57.691405918560285
-7.501973346666666,-22.50592004,7.288527953147737,-0.10512016745999968,2.4169506000000003,0.0,123,3,29.28631931205235,128.5451,mp-629397,FeNiN,https://materialsproject.org/materials/mp-629397,31.117214024820882,57.3596778945543,85.70181718471811,17.293415546978487
-3.761601455,-15.04640582,6.137842157412906,-0.5866397037500004,8e-07,0.0,216,4,69.36026473161725,256.376,mp-7555,LiMgSnPd,https://materialsproject.org/materials/mp-7555,86.51978533062729,1.9632507335871427,57.67779708140761,69.88760765344428
-6.198579728229166,-595.06365391,3.704234798560447,-2.198440624296667,45.0335471,1.1929,1,96,833.9224230955699,1860.2660850000002,mp-777750,Li32Mn13Cr3O48,https://materialsproject.org/materials/mp-777750,-11.274797768138594,100.64903858874592,-12.198411842002486,98.75713209543501
-8.272022785,-16.54404557,16.177169951452385,-0.06436990500000128,4e-05,0.0,187,2,30.084212841917147,293.084,mp-1187458,TcPt,https://materialsproject.org/materials/mp-1187458,61.969068845968856,61.0254142455919,84.50102903817381,13.717450465585063
-4.63095629,-18.52382516,8.472969910666384,-0.6089650200000003,6.620000000000001e-05,0.0,225,4,70.33847286545212,358.905,mp-977579,MgSbPd2,https://materialsproject.org/materials/mp-977579,93.48628458352164,2.128703199615502,70.40167663328758,55.017518485728594
-9.29369455625,-74.34955645,18.978815527156037,0.2502908425000001,0.0001449,0.0,194,8,130.48154213603044,1491.314,mp-973866,LuOs3,https://materialsproject.org/materials/mp-973866,68.95261285360134,57.23840416212824,57.714394050210025,40.95730706394025
-5.702534188125,-91.24054701,3.9625694134302094,-1.8711859025600008,10.0000005,0.0,12,16,140.5952770518609,335.504635,mp-1174160,Li5Mn(CoO4)2,https://materialsproject.org/materials/mp-1174160,6.580965192886425,86.6789321229058,-4.86569861733061,93.8196737537702
-6.864190965714287,-96.09867352,4.821133413840358,-2.037813870000001,7.99999965,1.1618000000000004,74,14,140.37080445873278,407.5462,mp-1103684,Fe2SiO4,https://materialsproject.org/materials/mp-1103684,24.521187193352556,54.65695006857683,4.4748494182099,49.88415279573472
-6.758029961363636,-148.67665915,2.5774714539414516,-0.4249802806709097,0.0,1.7359999999999998,166,22,174.7347085046267,271.2214,mp-30091,MgB9N,https://materialsproject.org/materials/mp-30091,6.484415578422209,58.11512369891601,2.356073352107225,53.76118801532365
-5.8093856928125,-185.90034217,4.279859943127692,-1.8740367294349989,13.9999994,0.5861000000000001,2,32,280.51669320102184,723.001465,mp-1175426,Li9Mn2Co5O16,https://materialsproject.org/materials/mp-1175426,18.915029235295442,88.60877866102258,10.717751756821562,91.22139649849194
-9.1339825625,-36.53593025,10.111758000521043,-0.40394401750000064,5.75e-06,0.0,123,4,64.31191712045333,391.62376,mp-1963,NbRh,https://materialsproject.org/materials/mp-1963,67.65028836013744,59.92078427482532,87.8734318219994,18.78784490261312
-6.063063165,-24.25225266,11.240144376103132,-1.126649759375001,2e-07,0.0,166,4,42.253970222276,286.0159950000001,mp-19210,CoPtO2,https://materialsproject.org/materials/mp-19210,61.494460218853206,16.111566916459875,50.111715939733244,6.758681009933425
-3.97545089,-7.95090178,6.60890879363872,-0.4323935899999998,0.0,0.0,187,2,28.48282099075527,113.361,mp-2744,LiPd,https://materialsproject.org/materials/mp-2744,37.97444376079885,39.29165327634282,48.10160651867368,-0.4494947929795159
-7.656454605,-30.62581842,10.639244976977608,-0.5736287625000003,4.576666599999999,0.0,225,4,67.06357653252078,429.683255,mp-978995,TmMnRh2,https://materialsproject.org/materials/mp-978995,95.04299988543595,9.435353375629782,61.72268814973201,65.64186246518028
-4.90255908,-78.44094528,4.772278455109314,-1.3784794649999998,3.0376166000000002,0.024900000000000144,12,16,137.57640060652682,395.3854,mp-752986,Li4CuNi3O8,https://materialsproject.org/materials/mp-752986,8.834544693860396,74.58234868110866,14.993852896862517,70.07257172455223
-7.6995762025,-30.79830481,16.831043918985642,-1.0200740374999997,1e-07,0.0,221,4,66.74064977965661,676.4760000000001,mp-30858,ZrPt3,https://materialsproject.org/materials/mp-30858,63.234127034312436,54.80996984819333,57.374302411180935,37.67538152504369
-6.73977562625,-161.75461503,4.672416327430708,-1.7164325392866668,10.000001,0.16210000000000013,8,24,248.5920751363932,699.48712,mp-768525,Mn3V2Co3O16,https://materialsproject.org/materials/mp-768525,0.5574218571017838,72.26853620826263,2.4333239095632644,58.14179959421353
-5.8715517125,-23.48620685,8.540020053748567,-0.6179117356249995,1.6e-06,0.0,225,4,73.98053491756369,380.476,mp-867240,SmMgRh2,https://materialsproject.org/materials/mp-867240,88.09280792358757,-2.078669941790541,68.19541049774695,46.1568410200831
-7.656156431666666,-45.93693859,11.89879922006819,-0.4859095083333334,0.0,0.0,227,6,82.58227882383855,591.7536,mp-30708,HfNi2,https://materialsproject.org/materials/mp-30708,70.52752945204226,49.654542385098026,72.33126932424885,22.347287105961733
-4.4133066875,-17.65322675,10.325021197514193,-0.42187456750000063,9.000000000000001e-07,0.0,225,4,68.66994326451747,426.981,mp-30763,LiPd2Pb,https://materialsproject.org/materials/mp-30763,87.32351884220428,1.739659177251961,58.2103866965324,69.31941750747265
-7.24503704,-21.73511112,10.559304248518718,-0.4218960166666672,4.3200000000000007e-05,0.0,71,3,48.081179250034104,305.74638,mp-1018151,NbPd2,https://materialsproject.org/materials/mp-1018151,67.55401507140257,60.16074891971755,88.07118047027035,18.649531869868092
-5.534942535,-77.48919549,4.1030439164854995,-1.6106864771428573,3.0000001,0.0343,12,14,138.80783525447282,342.981785,mp-1177929,Li2MgCo3O8,https://materialsproject.org/materials/mp-1177929,4.1026993273528065,77.15348324151577,18.22731439965824,92.40201382695095
-3.9308169925,-15.72326797,4.066326991047748,0.4563775875,1.7800000000000002e-05,0.0,139,4,61.117909661043704,149.6655,mp-1187941,ZnSi3,https://materialsproject.org/materials/mp-1187941,57.65070630037906,55.02135484294387,80.94722304315661,10.255598347039253
-9.548252225,-38.193008899999995,10.4341147314683,-0.3553607962500003,1.47e-05,0.0,225,4,68.19736885697304,428.523,mp-1187977,Zr2FeOs,https://materialsproject.org/materials/mp-1187977,93.98058359755942,8.661928506543818,58.68151225879472,67.04602931282156
-5.46479837,-10.92959674,15.466838218522264,0.3814518616666671,0.17132329999999998,0.0,187,2,32.217521311464054,300.0852,mp-1183229,AgIr,https://materialsproject.org/materials/mp-1183229,62.82073369013903,59.6131050605125,83.31942692305631,17.560160536395323
-8.426104563333334,-50.55662738,12.08938853908273,-0.3680324000000006,1.13895855,0.0,227,6,81.41211671004893,592.7127800000002,mp-2337,HfCo2,https://materialsproject.org/materials/mp-2337,70.37278758097585,49.83500463592887,72.34545406075513,22.2382042310923
-8.5796901225,-34.31876049,9.463756357697546,-0.04704151875000129,0.7682198,0.0,221,4,61.090233879801815,348.165912,mp-973004,ScRu3,https://materialsproject.org/materials/mp-973004,58.942649686295965,56.254605163971426,82.01847659070107,13.854249973678716
-8.093001535,-48.55800921,11.233585218354028,-0.4295961297222218,1.5570448000000001,0.0,191,6,64.51574202603643,436.45049500000005,mp-10056,UCo3B2,https://materialsproject.org/materials/mp-10056,55.3507199562645,26.201653754080173,68.21552588321516,19.308813650379147
-9.7533783025,-39.01351321,14.85819862039957,0.16303762000000074,2.8e-06,0.0,139,4,67.76956590747653,606.3896400000001,mp-1187227,Ta3Cu,https://materialsproject.org/materials/mp-1187227,63.821482409267944,54.92410223879158,56.81362661507288,36.542357600370174
-5.159964385,-20.63985754,3.403083485975233,-0.37460516166666746,2.27e-05,0.0,221,4,62.85379648277529,128.8116158,mp-998981,TiAl3,https://materialsproject.org/materials/mp-998981,59.842956282402994,54.42106278140107,81.06321719644177,17.35304800466252
-8.58394456,-34.33577824,9.45720136541784,-0.051295956250001495,0.0001968,0.0,139,4,61.13257685167843,348.165912,mp-973022,ScRu3,https://materialsproject.org/materials/mp-973022,58.93018075103782,56.249262734927655,82.17243480240552,14.100761672236313
-10.96298847,-21.92597694,15.732072507660911,0.0765285225000003,0.0001529,0.0,187,2,30.20558523649045,286.17,mp-1221418,MoOs,https://materialsproject.org/materials/mp-1221418,62.04244718392047,60.90557235906298,84.3877787942066,13.902871959056489
-7.58319215,-60.665537199999996,5.730681210568575,-0.4983861987500005,0.00110005,0.0,223,8,126.63950238694292,437.0452,mp-12071,Ti3As,https://materialsproject.org/materials/mp-12071,58.360137307975286,48.926778081830165,75.95308013377596,23.800712734321607
-9.657883880714284,-135.21037433,5.3526527928599785,-0.9819215317342856,0.000863,0.0,194,14,153.15344927946285,493.68140000000005,mp-1245438,V3CrN3,https://materialsproject.org/materials/mp-1245438,25.582334009531845,54.539698549592096,11.073227741302423,46.5052890800603
-7.7181928850000014,-154.36385769999998,19.56289207956895,-0.8818842029999999,1.8425e-05,0.0,123,20,325.54859457203975,3835.304,mp-1224475,HfPt4,https://materialsproject.org/materials/mp-1224475,68.89613397288947,57.376188992575024,88.22291045166416,18.81798803069222
-5.799599485625,-185.58718354,4.294626941414202,-1.8642505222475,13.9999999,0.5076,1,32,279.55214154511646,723.001465,mp-1175955,Li9Mn2Co5O16,https://materialsproject.org/materials/mp-1175955,18.61554403842032,88.3036847123736,10.687981957815786,91.80158812963558
-2.120990635,-8.48396254,6.004510381601268,0.18607807071428573,0.0001301,0.0,221,4,62.832056444565175,227.20076200000003,mp-1187918,Zn3P,https://materialsproject.org/materials/mp-1187918,59.809548018606904,54.40815678506917,81.07746426681284,17.295426383486653
-5.8111295634375,-185.95614603,4.283208750794244,-1.87578060006,13.999999599999999,0.6158999999999999,2,32,280.2973724750326,723.001465,mp-1175438,Li9Mn2Co5O16,https://materialsproject.org/materials/mp-1175438,18.87679762069069,88.55735638664532,10.632097102323169,91.14762178023868
-8.446097235,-33.78438894,10.207139336608511,-0.3433404562500009,7.65e-05,0.0,225,4,70.96669872889599,436.224,mp-864897,Zr2CuOs,https://materialsproject.org/materials/mp-864897,94.09544453550191,2.2589675690597177,70.4890692684143,55.01635207337902
-9.491657205,-37.96662882,17.492786696898413,-0.7069065474999991,0.0,0.0,221,4,63.399418889423636,667.8750000000001,mp-1438,ZrIr3,https://materialsproject.org/materials/mp-1438,61.45731571912012,56.795638566067296,81.69637801397698,15.366924337989712
-2.89872104,-8.69616312,4.125610342966332,0.024290021666667272,3.6000000000000003e-06,0.0,164,3,48.04670775911702,119.3720772,mp-1206713,Al2Zn,https://materialsproject.org/materials/mp-1206713,59.446551860316546,52.268456230858774,81.47830158222533,18.298270605474233
-5.923959203333332,-17.77187761,8.660968618341153,-0.4937568266666676,0.015019799999999998,0.0,139,3,67.67109352654553,352.95599999999996,mp-1063522,CePd2,https://materialsproject.org/materials/mp-1063522,24.899916498818822,7.036544781848142,57.06298101578106,32.8292266440769
-5.00691464,-20.02765856,10.876046271004107,-0.4353435933333341,3.35e-05,0.0970999999999993,123,4,66.27440224549295,434.07800000000003,mp-510436,InPd3,https://materialsproject.org/materials/mp-510436,68.0943460396318,58.95451945257782,57.94430960099631,41.455209234769455
-8.33308734,-33.33234936,10.586538235890842,-0.6860034100000014,3e-07,0.0,221,4,62.7321981113343,399.9405,mp-229,ZrRh3,https://materialsproject.org/materials/mp-229,67.25136473233742,60.791642287265475,88.25449771097344,18.30133735355888
-8.735875543684209,-165.98163533,6.3664989160845815,-0.3510564715284195,18.644915899999997,0.0,12,19,189.09257538781281,724.98005,mp-1247185,Mn10CuN8,https://materialsproject.org/materials/mp-1247185,29.715411800551788,58.60610896713775,83.0303909012868,22.424574617416376
-5.803715921428571,-81.2520229,5.099481918329043,-1.6634324350000005,0.0,1.4899999999999998,12,14,134.26919134740203,412.33797999999996,mvc-14150,Mg(CoO2)2,https://materialsproject.org/materials/mvc-14150,14.572501070892795,54.623920548434974,4.344912975851737,49.48162176089404
-5.663904288333333,-101.95027719,4.7831904403162175,-1.1691069861111112,4.998949,0.9924,12,18,210.1606651517766,605.3687749999998,mp-850192,Co5SnO12,https://materialsproject.org/materials/mp-850192,4.785411610805796,71.16389676553821,18.82626490525584,83.42386419657741
-5.821360322916667,-139.71264775,4.116580551455733,-1.8739614861216665,12.000001300000001,0.43510000000000026,5,24,212.6833883966229,527.2554749999998,mp-1174910,Li7Mn2(CoO4)3,https://materialsproject.org/materials/mp-1174910,11.463748868390956,85.46518111024123,8.174430516829286,94.30744507502277
-5.656942210833333,-67.88330653,5.249699744310405,-1.2684655708333328,0.9999275,0.0,166,12,136.77133096289552,432.39478499999996,mp-761512,Co3TeO8,https://materialsproject.org/materials/mp-761512,4.667237409324621,71.01041019822904,18.401812926288205,82.87339181157023
-6.83541399875,-54.68331199,5.066721025241017,-0.05828449369000044,7e-07,0.0,194,8,75.24278313007162,229.5846,mp-1246491,SiNiN2,https://materialsproject.org/materials/mp-1246491,28.703193373075052,53.05197857949504,60.80711946023833,-18.102502559128837
-5.40443139,-86.47090224,4.02960611197704,-1.7132334025000002,9.999999800000001,0.3837999999999999,10,16,139.90266825049878,339.49978500000003,mp-1174016,Li5Co3O8,https://materialsproject.org/materials/mp-1174016,7.163522503310108,84.76853767869575,-4.377011007046064,93.97048895061472
-6.447839656071428,-180.53951037,4.554751747113637,-1.863749933742856,8.000207000000001,0.0,8,28,268.0501117130364,735.24421,mp-768354,Li4Mn5Co3O16,https://materialsproject.org/materials/mp-768354,-2.272200875162089,72.23817682189441,2.7615930912933178,60.42153439380607
-4.119656443333334,-24.71793866,8.086689919879442,-0.22760632695666716,2.8999999999999998e-06,0.0,65,6,70.6922803303073,344.26564928,mp-643273,NaH2Pd3,https://materialsproject.org/materials/mp-643273,46.839548696648464,32.8926605224454,52.46724460720624,36.393336854085845
-7.1411432375,-85.69371885,4.0226594527717126,-1.81862467774,10.999999800000001,0.7672,166,12,142.33441650825608,344.8054350000001,mp-756575,Mn3CrO8,https://materialsproject.org/materials/mp-756575,6.62167422913087,70.68358845664737,15.720014252266328,83.84779454823541
-3.434764665,-13.73905866,5.435701413149623,0.1945661137500001,7.879999999999999e-05,0.0,225,4,72.4782929968555,237.2545,mp-1183982,Ga3Si,https://materialsproject.org/materials/mp-1183982,94.52587763565687,2.151790404138552,71.78921585327883,55.2638898957871
-5.56288223,-33.37729338,11.875728434753487,-0.40387243916666665,0.0002315,0.0,216,6,83.75583110685238,598.9991689999998,mp-1025001,ErNi4Au,https://materialsproject.org/materials/mp-1025001,70.9189801953781,49.338015754835304,72.19211509781191,22.546348827271505
-5.437753133125,-87.00405013,4.0596771240166065,-1.746555145625,8.0000009,0.0,2,16,138.86637529103172,339.49978500000003,mp-1174037,Li5Co3O8,https://materialsproject.org/materials/mp-1174037,6.9067591933425545,85.9970819090949,-5.064693674965549,94.65396093465559
-4.5388129280000005,-45.38812928,3.2841013891607105,-2.7500192843140012,3.9700987000000003,0.0,225,10,130.4834017315207,258.0612142,mp-1111150,K2LiCoF6,https://materialsproject.org/materials/mp-1111150,-13.292075549206807,52.22225230734829,-2.702301372599225,57.627226478989726
-4.51929912125,-108.46317891,4.048143279021942,-0.9272592187708344,0.0,1.0927000000000002,1,24,274.05762349455546,668.11107712,mp-776392,Na2Ni3O7,https://materialsproject.org/materials/mp-776392,6.761862248104896,74.2213059853421,18.323472616012253,91.47877187043072
-5.958411555,-47.66729244,13.192879120157912,0.1435291774999996,2.965e-05,0.0,194,8,129.16395906551648,1026.1996,mp-1187540,TlRh3,https://materialsproject.org/materials/mp-1187540,62.79454099246337,55.82057048982258,80.37973932177675,15.649083907541359
-5.936616052857143,-83.11262474,4.341177915384733,-1.6828362492857152,6.0000002,0.6701000000000001,74,14,142.07664117532298,371.43359,mp-850214,LiFeCoO4,https://materialsproject.org/materials/mp-850214,12.363877194699638,77.53791488893687,17.218333605161334,82.90568610644277
-5.197164145,-83.15462632,5.257141028420536,-1.374138963750001,0.3661784,0.0,12,16,145.90853720844117,461.935395,mp-754273,Li3Co(CuO2)4,https://materialsproject.org/materials/mp-754273,19.483300489373306,53.26575663238122,2.9121195733419114,50.05004181984703
-5.171676556666667,-62.06011868,4.122876055208182,-0.23786672999999975,2.25e-06,0.0,182,12,185.9534952724057,461.69538600000004,mp-568607,Al5Mo,https://materialsproject.org/materials/mp-568607,47.160473012581434,38.44414058321225,76.35412820776105,15.439946868720224
-9.04804733,-126.67266262,6.634992266910758,0.03919449366928721,23.4183346,0.0,156,14,150.0166128175395,599.41925,mp-1222027,Mn10C3N,https://materialsproject.org/materials/mp-1222027,31.347357173261692,57.67016416423239,85.9724025234433,17.675439424145015
-4.36568324,-17.46273296,10.861691046114473,-0.2533931887500005,2.5e-06,0.0,221,4,65.99401003882001,431.671,mp-1183655,CdPd3,https://materialsproject.org/materials/mp-1183655,68.07314438067374,59.024536673692424,58.02070099837373,41.45862243841979
-5.439232166875,-87.02771467,4.0513712640261765,-1.7480341793749998,8.0000003,0.0,10,16,139.15107017465968,339.49978500000003,mp-1173996,Li5Co3O8,https://materialsproject.org/materials/mp-1173996,6.86660595724056,86.0532050392899,-5.07193919946807,94.60168876747255
-5.1101554275,-143.08435197,4.754591300731443,-1.2389506317857146,4.0000002,0.26380000000000026,36,28,261.1006663602004,747.6048,mp-772596,Li2FeNi3O8,https://materialsproject.org/materials/mp-772596,-1.1783636734802776,72.06381771229111,2.9804608446657745,58.487662274017545
-9.7770663975,-39.10826559,17.31042910375248,0.5581758656249995,0.0011462,0.0,139,4,64.97438981789449,677.331,mp-974432,Re3Sn,https://materialsproject.org/materials/mp-974432,62.23188272010026,56.35443768657121,82.34736193133561,16.630127168433038
-5.28256355875,-42.26050847,10.967826559411883,-0.36712054125000027,0.000129,0.0,194,8,133.54166816074616,882.04,mp-1186930,SbPd3,https://materialsproject.org/materials/mp-1186930,68.11583961385463,58.88374381822444,57.9434250248981,41.38460842380032