energy_per_atom,energy,density,formation_energy_per_atom,total_magnetization,band_gap,sgr,num_sites,cell_volume,weight,mp_id,formula,URL,tsne_cry_0,tsne_cry_1,tsne_xrd_0,tsne_xrd_1
-8.3590189975,-33.43607599,10.017260433254327,-0.5867795862500005,2e-07,0.0,225,4,68.30859284614418,412.074,mp-1183048,ZrSnRu2,https://materialsproject.org/materials/mp-1183048,101.2886922897132,6.554283049096912,67.29811188151575,60.36274539953593
-5.098723221666667,-30.59233933,9.263926977712783,-0.30803832458333363,6.8e-06,0.0,216,6,89.18380233661625,497.5446,mp-1072586,SmCdNi4,https://materialsproject.org/materials/mp-1072586,70.48687500966344,46.714445697580594,73.42642385951838,25.557184751116015
-6.230339281666668,-74.76407138,3.6329928891247527,-2.210523492708333,1.9999999,0.4487999999999999,9,12,104.09931846924604,227.7526,mp-770192,Li2CrO3,https://materialsproject.org/materials/mp-770192,-29.417907442824394,64.26273397316287,-26.30430705194025,72.0388705122898
-9.8428182025,-39.37127281,14.890867875997802,-0.6359113074999989,5e-07,0.0,225,4,72.26146582165259,648.004,mp-1184588,Hf2MoPt,https://materialsproject.org/materials/mp-1184588,96.9792464083038,3.0177841061725665,73.31156992291461,55.88755966854753
-3.45994844,-13.83979376,10.307510620977904,-0.4135102874999999,0.0,0.0,123,4,70.50730909220546,437.662,mp-1696,CdPd,https://materialsproject.org/materials/mp-1696,52.72345380831098,29.74964666249544,54.67419203238465,42.114048934331954
-5.241889137222223,-94.35400447,2.7207047940153606,-3.445301735904445,0.0,7.1895,186,18,268.87968027646616,440.5450384,mp-13002,K2SiF6,https://materialsproject.org/materials/mp-13002,-13.496933954148885,52.15924614705114,-2.564454048733229,57.07376336095003
-6.02999431125,-48.23995449,5.392615933383279,0.30010489874999896,0.44949985,0.0,194,8,137.64702798048174,447.01,mp-971768,Ti3Br,https://materialsproject.org/materials/mp-971768,49.854203971518686,31.084940192338497,52.42017732435197,34.24088967957005
-5.466676387857143,-76.53346943,4.338639444673484,-1.444573421428571,3.0195111,0.0,74,14,141.976213257453,370.954,mp-755275,LiFeNiO4,https://materialsproject.org/materials/mp-755275,0.3681171141991509,67.98871339915219,17.2625485169789,81.965727331747
-9.542473849375,-152.67958159,11.783842741618502,0.01871804854166648,3.125e-07,0.0,141,16,222.10485170665837,1576.144,mp-28893,ReB,https://materialsproject.org/materials/mp-28893,50.049496726381314,19.34336192652789,48.74576989159669,6.574846752489695
-4.0534697325,-32.42775786,6.276079390404669,-0.11915904999999948,0.4911206,0.0,194,8,154.25831544055987,583.0260000000002,mp-22237,CeMgCu2,https://materialsproject.org/materials/mp-22237,44.71744581275713,34.061027666148,51.01867361752679,32.14969328238912
-1.5167068475,-6.06682739,4.1032463495147695,-0.07812595499999997,2.55e-06,0.0,51,4,72.6125544239755,179.428,mp-978268,MgZn,https://materialsproject.org/materials/mp-978268,45.58349811061795,34.09975851408984,50.95416214745589,32.763176858773534
-5.847860865,-327.48020844,2.427480858830667,-2.1126381881585714,0.0,4.9910999999999985,14,56,426.8720104400646,624.0284687999998,mp-560572,Al(HO)3,https://materialsproject.org/materials/mp-560572,-9.856272164523544,77.7046132907017,-27.63194869499885,75.59396219502925
-7.5621022625,-30.24840905,9.82714349769924,-0.7494034512500001,2.59e-05,0.0,225,4,70.25040423460075,415.745,mp-864947,ZrSnRh2,https://materialsproject.org/materials/mp-864947,101.35344313933592,6.000320210511045,67.79249645108085,60.52769140593292
-10.652243065,-63.91345839,14.98609064070325,-0.5224294405555554,2.8e-06,0.0,140,6,82.59580704402674,745.4135200000001,mp-1032,Ta2B,https://materialsproject.org/materials/mp-1032,60.48724655598517,26.76366672598505,64.689286918254,14.707650900602939
-4.3497963083333335,-26.09877785,9.048482466967856,-0.16247530166666674,2.8999999999999997e-05,0.0,216,6,87.47376371555227,476.65535,mp-1077262,TbCu5,https://materialsproject.org/materials/mp-1077262,67.41604953433021,49.15212067232074,73.87648701345356,23.481635700431053
-6.9366937875,-83.24032545,5.872690730720099,-0.7298001641666664,1.55e-06,0.0,62,12,219.6801017598256,776.9244,mp-1207382,ZrSiAs,https://materialsproject.org/materials/mp-1207382,33.63997519205122,26.29513994897211,52.08020575033846,1.5696793533961808
-4.51227542125,-36.09820337,7.734449213865959,-0.4276589949999998,0.0,0.0,139,8,174.5226243828275,812.8904786,mp-27393,AlPd5I2,https://materialsproject.org/materials/mp-27393,52.336339644010756,43.08435849260622,74.42813715616529,14.07057834993007
-5.5928157480000005,-55.92815748,5.230376352804135,-0.37369250400000026,0.0003707,0.0,127,10,202.87183918694492,639.0070000000002,mp-754185,Y2MgNi2,https://materialsproject.org/materials/mp-754185,42.595270146938134,16.312237610029324,48.562567622244025,9.104453152985828
-7.999000411999999,-39.99500206,5.1790006639944535,0.010667644666666832,0.1410671,0.0,69,5,79.29577890472342,247.313,mp-1217161,Ti4Fe,https://materialsproject.org/materials/mp-1217161,56.61762549279558,46.72556807744141,75.79451539315545,6.226979516252969
-11.00176079,-44.00704316,15.456556088357956,-0.6308549387499998,1.5e-06,0.0,225,4,69.31663094118275,645.21,mp-977541,Hf2TcOs,https://materialsproject.org/materials/mp-977541,96.7076258044645,5.090997502081932,65.30614612548639,64.35879773805668
-6.0230291745,-120.46058349,9.62233402522662,-0.3874069061666667,21.254291600000002,0.0,166,20,331.32354374915593,1919.922225,mp-1221408,Mn5In4SbPd10,https://materialsproject.org/materials/mp-1221408,96.47115676977036,9.410903825855275,62.12796933897583,64.18399771740215
-9.336882505,-37.34753002,8.848609783404697,-0.6367678300000001,3.229999999999999e-05,0.0,225,4,71.94050460497357,383.3535,mp-1188004,Zr2TcRh,https://materialsproject.org/materials/mp-1188004,100.8493341699654,4.868393669231177,69.72037310939638,60.49772265607234
-3.4506667475,-27.60533398,6.787771105395664,-0.3107840642968753,0.0,0.0,43,8,186.2206147357137,761.2123999999999,mp-686712,InAgSe2,https://materialsproject.org/materials/mp-686712,24.768837813249803,7.66514389123668,11.381987497502644,-0.3842267546041789
-5.50467269,-176.14952608,4.2595786729230865,-1.709474024687499,24.0,0.0,12,32,284.9672366464408,730.991765,mp-1175383,Li9Co7O16,https://materialsproject.org/materials/mp-1175383,10.832786956707352,87.16804084615916,7.778022447881415,96.00267988177124
-10.89647834,-43.58591336,20.64709934550085,-0.04937821312499935,2.9199999999999998e-05,0.0,187,4,60.61658135121642,753.7049999999998,mp-1219540,Re3Pt,https://materialsproject.org/materials/mp-1219540,67.55859942179927,63.62071770235029,89.65975450647329,16.57258231848374
-9.8001648225,-78.40131858,8.812458874177093,-0.2970782362499982,3e-07,0.0,223,8,119.0526783025026,631.811,mp-1275,SiMo3,https://materialsproject.org/materials/mp-1275,63.82883156476152,25.09468257734232,70.3005844839251,19.571865906875544
-4.06791802025,-162.71672081,8.795607231750376,0.008900543500000423,7.197e-05,0.0,63,40,584.0238398681812,3093.48,mp-1195862,Cu3Sn,https://materialsproject.org/materials/mp-1195862,55.16019512534073,53.17662650845855,81.23938584618664,6.1385774045218495
-3.2640474630000003,-32.64047463,2.9060870976995243,-0.17076751844799992,1.47e-05,0.0,136,10,124.93013881682384,218.63856,mp-1078818,Mg2NiH2,https://materialsproject.org/materials/mp-1078818,36.0260476367735,40.7276434568751,46.1222665573368,62.60304172038232
-6.280737804,-31.40368902,5.102350365409683,-2.0621411273189665,0.0,0.2538,221,5,60.01466600465664,184.4075,mp-1076638,RbVO3,https://materialsproject.org/materials/mp-1076638,18.657834321139347,-94.36300934286528,62.108805427156064,-64.22552994039597
-4.1268228125,-49.52187375,3.634465054337368,-2.1785785699599995,0.0,1.0159,140,12,133.8501113759479,292.9612256,mp-753541,LiCuF4,https://materialsproject.org/materials/mp-753541,-26.176579209338552,60.494696185257865,-27.776758873448717,60.35471341373849
-10.865378495,-43.46151398,15.599546126611008,-0.7675870787499992,9.000000000000001e-07,0.0,225,4,69.0080493441297,648.28,mp-1184604,Hf2OsRu,https://materialsproject.org/materials/mp-1184604,96.70462296287904,5.176391014360142,65.15896520686516,64.31967458128165
-7.96553624,-63.72428992,6.818052773139119,-0.4013991005949995,2.0072086,0.0,194,8,91.43946343186084,375.4438,mp-10371,Cr2GaN,https://materialsproject.org/materials/mp-10371,57.108614662770776,47.99569634300139,82.47374978306509,20.459206693510016
-4.854532045,-19.41812818,11.241425303473212,-0.3163386025000001,0.0054489,0.0,194,4,93.1794080008342,630.8008,mp-1008488,BiPd,https://materialsproject.org/materials/mp-1008488,48.32146507162982,20.117183632303213,57.12900014541603,-23.71492872236893
-10.227971546666668,-30.68391464,9.340611262226588,-0.33558544412666674,3.16e-05,0.0,166,3,36.60176979523188,205.8867,mp-1221525,Mo2N,https://materialsproject.org/materials/mp-1221525,53.09467814687979,35.308578726419675,54.366140512917184,41.58923246080892
-11.0519753525,-44.20790141,15.789281301475954,-0.3800052674999996,0.00042669999999999996,0.0,225,4,68.04619672567316,647.01914,mp-864640,Ta2NbIr,https://materialsproject.org/materials/mp-864640,96.39826104469618,6.582294741810203,63.96974529344075,64.30393062392743
-8.517346711333332,-127.76020067,5.876636955475885,-3.632923030916667,2.1000000000000002e-06,0.0,164,15,184.5232353201083,653.0265400000002,mp-1218904,SrLa2Ti3O9,https://materialsproject.org/materials/mp-1218904,3.6159406368252496,-98.65132503538037,58.21095340347836,-64.81171152658307
-5.8966315875,-23.58652635,2.94047551079511,-2.981256511875,0.00058695,3.2583,194,4,45.521229092419006,80.6088,mp-1065577,MgO,https://materialsproject.org/materials/mp-1065577,12.83392211623292,55.86038782738842,11.299859004870884,46.93442208838865
-5.7876252978125,-185.20400953,4.234007426598815,-1.8522763344349995,20.0000012,0.2697000000000003,2,32,283.5545707991625,723.001465,mp-1175836,Li9Mn2Co5O16,https://materialsproject.org/materials/mp-1175836,14.998663211580356,89.93473211316649,6.9626307029996415,92.11103252877052
-5.403901050000001,-16.21170315,5.181643983086281,-0.03184198908000013,0.8808754000000001,0.0,225,3,17.308985663711848,54.01198,mp-24208,CrH2,https://materialsproject.org/materials/mp-24208,33.91893091483178,52.483064105186216,56.084957582558005,42.105714784741075
-6.5595005375,-26.23800215,8.627407041806284,-0.2899018987499993,0.00020390000000000002,0.0,225,4,65.01516858394501,337.789302,mp-1185510,LuScCo2,https://materialsproject.org/materials/mp-1185510,90.91861137538841,13.983324424215482,55.518487446157906,63.4674877142871
-3.92228676875,-31.37829415,4.022425580266321,-0.08638631625000004,3e-06,0.0,123,8,119.2973262832398,288.9812316,mp-985825,Al3Cu,https://materialsproject.org/materials/mp-985825,54.70750096857518,49.798612368297384,78.7359294447427,5.580029489268222
-5.3923170050000016,-53.92317005,2.5140791682185,-3.177882394380667,1.0,0.0,225,10,120.6596720421182,182.6804192,mp-1111280,Li3TiF6,https://materialsproject.org/materials/mp-1111280,-25.533796024609586,62.38173052981911,-41.68190073471578,65.43619055291622
-1.3843799708333335,-16.61255965,4.953331462587856,-0.001050434166666688,1.9875e-05,0.0,63,12,208.01175891212728,620.4920000000002,mp-1094460,MgZn2,https://materialsproject.org/materials/mp-1094460,47.511520725785026,32.504507768020424,80.5199515586872,20.14915547238193
-5.895211316999999,-117.90422634,4.014392985594692,-1.938172581471,7.00000005,0.3689999999999998,12,20,177.61249924722918,429.38248,mp-1174075,Li3MnCoO5,https://materialsproject.org/materials/mp-1174075,3.3234308400955506,93.61463243310871,-0.8077529193421307,91.58867310873077
-3.5493067658823527,-120.67643004,6.526605907209022,1.6801635129252943,0.00026365,0.0,43,34,190.63304732427528,749.2668,mp-864958,Fe2C4Cl2O9,https://materialsproject.org/materials/mp-864958,8.162009191549885,60.204803587402495,15.053391486479745,-7.434092020101353
-4.6122949125,-18.44917965,6.472346901161465,-0.17273968660714356,0.0002943,0.0,221,4,68.2347694392513,265.961286,mp-979984,YbP3,https://materialsproject.org/materials/mp-979984,45.75517067690914,36.91406254377762,14.062494499165734,-12.631510402438755
-8.56226207,-42.81131035,14.691100732374899,-0.6417532063333325,7e-07,0.0,221,5,71.48236552194145,632.4179120000001,mp-10113,ScBIr3,https://materialsproject.org/materials/mp-10113,50.46807549617139,33.40153639550279,55.08195776684453,35.592672802770956
-6.734489301428572,-94.28285022,3.3473067335071387,-3.08596818,0.0,3.867,74,14,139.59066426149838,281.3862,mp-673808,Mg2SiO4,https://materialsproject.org/materials/mp-673808,1.8198579841354647,62.6596946708438,9.806949996824232,53.84812172293343
-5.7772071578125,-184.87062905,4.18275095787049,-1.841858194434999,19.9999999,0.0,10,32,287.0293189104726,723.001465,mp-1100728,Li9Mn2Co5O16,https://materialsproject.org/materials/mp-1100728,13.494448911004412,89.22814271190613,3.661123246885112,93.39640298433342
-5.7109367375,-45.6874939,9.997996230778536,-0.97183862125,5e-07,0.0,139,8,126.39734249093719,761.0300772,mp-1025564,LuAl2Pd5,https://materialsproject.org/materials/mp-1025564,59.007995159486846,42.06006188965256,50.83976319070867,30.946796783606377
-6.8884443499999986,-427.08354969999994,4.147478555177645,-2.3247074094892475,4.98315585,0.0,55,62,642.1081831034461,1603.77435,mp-774513,Li4Ti4Co5O18,https://materialsproject.org/materials/mp-774513,-7.607297266470341,66.32619448734421,-8.725206691554579,71.558175923106
-6.247424656145833,-599.75276699,3.6106599445155387,-2.2321496406550003,35.027681,0.9789,1,96,842.0046086832605,1830.846635,mp-777959,Li32Mn3Cr13O48,https://materialsproject.org/materials/mp-777959,-10.843501735074293,98.63671559771687,-12.614385452569726,96.67474504726587
-5.842088755,-105.15759759,5.058633522559359,-1.4023303052777776,1.0000001,0.0,64,18,220.3420125309866,671.24558,mp-867659,Co2SbO6,https://materialsproject.org/materials/mp-867659,4.6094142073533835,70.71882599664156,18.57657689477705,82.62636484495332
-6.2561024000000005,-150.1464576,3.5857692026727084,-2.2362866110416664,2.000002675,0.5259,15,24,210.94056108218712,455.5052,mp-770628,Li2CrO3,https://materialsproject.org/materials/mp-770628,-10.750891773995876,98.30172733054285,-12.634538448780065,95.77842122479036
-4.725109246666666,-28.35065548,9.78764696962917,-0.35797995999999976,5e-07,0.0,216,6,88.14159018789266,519.52935,mp-1206691,TbCu4Pd,https://materialsproject.org/materials/mp-1206691,70.51376272802597,47.142901559462736,73.52667853418407,25.004438711423568
-8.94609291,-17.89218582,6.465945879414406,-0.3902321861899996,2.9971315,0.0,225,2,17.7059076599808,68.944745,mp-6933,MnN,https://materialsproject.org/materials/mp-6933,29.102221388323393,60.89379034234812,56.36620051005236,44.169740035035716
-7.044292183846153,-91.57579839,3.8668204151774486,-1.98443100176,12.000001300000001,0.7334,12,13,151.0514129918595,351.746435,mp-754504,LiMn3CrO8,https://materialsproject.org/materials/mp-754504,9.571452823486824,70.96926300440344,17.70376355235243,78.91142883954045
-6.1492763025,-24.59710521,15.629888802890566,1.0944239541666665,1.0800000000000002e-05,0.0,225,4,72.5721280592697,683.0880000000001,mp-631431,InHgW2,https://materialsproject.org/materials/mp-631431,97.10353556300413,3.1267647412733686,73.51280734688405,55.937631229185065
-7.66531279,-61.32250232,9.98934953428339,-0.03750337750000021,1.15006175,0.0,223,8,116.29220179439876,699.582138,mp-839,V3Au,https://materialsproject.org/materials/mp-839,43.576937479609434,41.1007620909099,62.946911265604584,-15.978448206425213
-3.30134026,-13.20536104,8.453689074554452,0.17649421125000053,1.3e-06,0.0,187,4,69.08169154095404,351.6901000000001,mp-1219243,SiAg3,https://materialsproject.org/materials/mp-1219243,47.68700598223874,31.83564651641021,50.85118650021169,35.36840781397441
-6.0186462475,-48.14916998,17.352781492991117,-0.32033802124999955,0.0,0.0,140,8,125.91126679546198,1315.784,mp-16315,GePt3,https://materialsproject.org/materials/mp-16315,56.93061848825785,42.314127871065885,81.22076087589885,13.542958657611301
-5.7659802425,-184.51136776,4.19900519584106,-1.8306312791225,19.999997,0.0,10,32,285.9182360142851,723.001465,mp-1100726,Li9Mn2Co5O16,https://materialsproject.org/materials/mp-1100726,13.34449691537322,88.26511114232281,3.4013351807347436,92.450812781339
-5.784450334375,-185.10241069999998,4.212903351827137,-1.8491013709974995,18.000000399999998,0.37550000000000017,5,32,284.97500615318063,723.001465,mp-1175662,Li9Mn2Co5O16,https://materialsproject.org/materials/mp-1175662,17.624512606414285,90.13686893647923,7.906138967207093,91.13331811903072
-5.380722663999999,-80.71083996,4.461321328738009,-1.4626890995666677,7.0000026,0.0,12,15,161.05334855216205,432.69728784,mp-690591,Na3(CoO2)4,https://materialsproject.org/materials/mp-690591,14.861371795247988,65.2762797131795,12.818665667981891,67.5819377622799
-6.728548230571429,-470.99837614,4.372938434994806,-2.7262448584285703,1.99947284,2.9452000000000007,8,70,670.8097910052608,1766.5407719999996,mp-530459,Al2NiO4,https://materialsproject.org/materials/mp-530459,1.5228580516213752,65.02805229222457,10.693524670610202,52.965889115076635
-5.185217853999999,-51.85217854,4.176628474724398,-2.294179112607,6.000000099999999,0.04369999999999985,139,10,90.52209840633918,227.6833996,mp-760300,Li3Co2O2F3,https://materialsproject.org/materials/mp-760300,27.62815219759944,66.75488090562472,32.006013914886104,77.1335491339139
-5.127401822307693,-66.65622369,4.856169380499309,-0.8624414415384616,2.2358688,0.0,12,13,150.83583284116978,441.112395,mp-756685,Co(CuO2)4,https://materialsproject.org/materials/mp-756685,-19.56471261255361,46.297401435740355,13.147064044061935,66.83412165816868
-5.8044388428571425,-325.04857519999996,5.9717842448884895,-1.4992011159821441,8.9997959,0.0,160,56,544.6599396470979,1958.756505,mp-867609,Zn5Co19O32,https://materialsproject.org/materials/mp-867609,-6.939095903607452,57.329669810465354,13.785034934168895,53.43553021061514
-4.79777083125,-38.38216665,15.312537173624921,-0.05274229375000061,4.4342739,0.0,194,8,140.073299224254,1291.6755039999998,mp-1186010,MnAu3,https://materialsproject.org/materials/mp-1186010,51.04281931897896,34.13183377533659,55.16189129475192,34.754958850678165
-10.978897015,-43.91558806,15.429402439861246,-0.5743140293749978,2.09e-05,0.0,225,4,69.33605526611053,644.2570000000002,mp-1184619,Hf2ReRu,https://materialsproject.org/materials/mp-1184619,96.73019707525671,5.04670879403421,65.31373207666243,64.33797567816643
-7.090535499333331,-106.35803249,2.438648037418913,-0.07241597427777814,1.7100000000000002e-05,0.008899999999999686,166,15,112.05619121790234,164.5644,mp-576,B13C2,https://materialsproject.org/materials/mp-576,5.734460293996307,57.60602790480071,0.5013398838903048,54.44131182518345
-5.8323079558333335,-139.97539094,4.048488191420123,-1.8849091190383345,15.9999995,0.0,1,24,216.26055428461723,527.2554749999998,mp-1175095,Li7Mn2(CoO4)3,https://materialsproject.org/materials/mp-1175095,5.791800583340201,94.14472825931415,1.4056110610029289,90.98622383090188
-7.20568889,-144.1137778,2.3169417011314324,-0.09818871816666644,0.0,0.2264999999999997,59,20,156.6853885371419,218.622328,mp-569299,Be(BC)2,https://materialsproject.org/materials/mp-569299,4.490662694554895,58.30391212549442,12.594551101953169,20.68224385986182
-5.263531748,-26.31765874,7.200983994974028,0.1152007210480008,1.9468859,0.0,166,5,70.97222008193563,307.77344500000004,mp-1246842,Mn(CdN)2,https://materialsproject.org/materials/mp-1246842,24.89193855641744,49.0778944531394,12.536050687469391,44.28111831073282
-4.9607062471428565,-69.44988746,4.599650844672111,-1.1018179678571425,2.9469486000000003,0.0,227,14,142.98369746717822,396.0612,mp-25385,Li(CuO2)2,https://materialsproject.org/materials/mp-25385,0.351139216411398,68.08953716726259,17.081465531300136,82.6506381266507