energy_per_atom,energy,density,formation_energy_per_atom,total_magnetization,band_gap,sgr,num_sites,cell_volume,weight,mp_id,formula,URL,tsne_cry_0,tsne_cry_1,tsne_xrd_0,tsne_xrd_1
-7.081262212,-70.81262212,3.6760197489326782,-3.1394826722500007,0.0,5.7925,148,10,90.6955712483583,200.7774,mp-5924,MgSiO3,https://materialsproject.org/materials/mp-5924,5.9520544690784325,61.463000503774396,7.657841507977168,50.37065412931205
-10.3614029425,-41.44561177,10.788343866699051,0.12304046750000094,2.24e-05,0.0,139,4,60.01946186163986,389.94,mp-1187396,Tc3Mo,https://materialsproject.org/materials/mp-1187396,65.56717562745443,62.82536672866675,89.7050306475835,16.19948239414491
-8.0278638925,-32.11145557,20.49932265636573,-0.24533568749999898,0.0006031000000000001,0.0,139,4,62.299975114304324,769.092,mp-862798,Pt3W,https://materialsproject.org/materials/mp-862798,67.69634746018143,63.18208702296954,88.9930098173852,17.670758584238907
-11.0113003625,-44.04520145,18.048850785753924,-0.07049737625000141,0.0012005000000000002,0.0,221,4,61.052512920237206,663.59638,mp-1186225,NbOs3,https://materialsproject.org/materials/mp-1186225,60.05031209000145,57.916306202174844,82.54632541436925,13.676919751087336
-3.047508355,-12.19003342,8.061947444334614,-0.2764135350000001,5.3e-06,0.0,225,4,68.9324897669445,334.6685,mp-867115,LiCd2Rh,https://materialsproject.org/materials/mp-867115,89.56271699900259,2.9698208927481726,57.671362647347095,67.53196298735688
-5.75106075,-46.008486,17.71348242462819,-0.4507719124999996,2.1000000000000002e-06,0.0,140,8,122.80042192175873,1309.9499999999996,mp-862621,GaPt3,https://materialsproject.org/materials/mp-862621,59.0416763346864,58.2040664921032,81.47124377767805,13.60468535097943
-4.997194323125,-79.95510917,4.737522246770264,-1.5224068006250002,5.000000099999999,0.0,166,16,142.97105647426363,407.8968,mp-756610,Li3Mg(NiO2)4,https://materialsproject.org/materials/mp-756610,13.98284882866627,78.36338465912168,23.666079292195548,81.20203962166596
-5.0921948225,-61.10633787,6.575090119663362,-0.4393732713888887,4.5e-07,0.0,141,12,189.22359605038838,749.252,mp-571342,TiGa2,https://materialsproject.org/materials/mp-571342,58.62373739524147,49.181120614474295,82.06128460614218,17.721379544042076
-5.8021273353125,-185.66807473,4.2200202473699,-1.8667783719349995,21.9999997,0.7704,1,32,284.49440719104194,723.001465,mp-1175975,Li9Mn2Co5O16,https://materialsproject.org/materials/mp-1175975,10.509432313678884,87.51041158214805,8.221858727780294,96.36177631011623
-8.103235785,-64.82588628,12.482286279059664,0.5909898424999991,0.54623925,0.0,194,8,133.3509179715268,1002.4,mp-1187592,Tc3Pb,https://materialsproject.org/materials/mp-1187592,59.79160220972197,34.73967405122755,76.13739219644569,14.477906103851481
-4.617913545,-18.47165418,6.684287897259276,-0.3706302191666673,1e-07,0.0,139,4,63.85396907581525,257.036,mp-2731,TiGa3,https://materialsproject.org/materials/mp-2731,58.62180423396864,48.768076975656854,83.81731909776502,18.46045166220041
-5.790222963125,-185.28713482,4.247730779015123,-1.8548739997474997,16.0000003,0.4977999999999998,1,32,282.63847712308575,723.001465,mp-1175943,Li9Mn2Co5O16,https://materialsproject.org/materials/mp-1175943,19.013493464869637,90.11726452753314,10.191296805341302,89.87976149546664
-8.117071417,-81.17071417,7.264867715427095,-0.5465837736666657,6.9732248,0.0,123,10,120.03015986666328,525.13263,mp-1224503,GdY(CoB)4,https://materialsproject.org/materials/mp-1224503,55.72999029957178,25.422837587694602,49.09621786797141,-1.7775018508790348
-4.592230964642857,-128.58246701,5.6983121004401065,-0.9626594574999996,1.99999515,0.0,59,28,287.6712038869788,987.1736,mvc-12561,Zn(NiO2)2,https://materialsproject.org/materials/mvc-12561,18.56568823757853,55.69994661291932,0.5893641105457353,49.519847437276475
-5.4323305490000005,-108.64661098,4.117084918851239,-1.6995322903749999,6.7828479999999995,0.0,12,20,176.40505127739223,437.37278,mp-1174026,Li3Co2O5,https://materialsproject.org/materials/mp-1174026,2.4985189764544744,93.69403976202608,-4.076166647995346,85.70146858895036
-3.6508254192000003,-365.08254192,2.5505869646986445,0.09727776080000013,3e-09,0.0,1,100,1756.6112751564453,2698.1538600000003,mp-1245129,Al,https://materialsproject.org/materials/mp-1245129,58.251701463742215,46.878415359594506,72.83043376555294,8.85749349427399
-5.857432445,-140.57837868,4.092214981617511,-1.910033608204999,15.9999997,0.4642,1,24,213.94973241243972,527.2554749999998,mp-1174988,Li7Mn2(CoO4)3,https://materialsproject.org/materials/mp-1174988,15.250059382974095,88.86297124598255,7.801916206814757,93.21481330891079
-8.104413156666666,-97.25295788,10.357829028160278,-0.6079000516666669,1.6100000000000002e-05,0.0,38,12,170.2625337059697,1062.0347800000004,mp-1224452,HfCoSi,https://materialsproject.org/materials/mp-1224452,71.4697170776235,26.75075882003686,70.96004107763939,21.468714608493315
-7.919618266666666,-142.55312880000002,6.966167074166663,-0.27546403661333346,0.0453363,0.0,2,18,182.58510871131833,765.9671599999998,mp-1246090,Zr(CoN)4,https://materialsproject.org/materials/mp-1246090,25.238603245605635,53.943693939470634,60.262342082612925,7.378135214265182
-5.8035046309375,-185.71214819,4.251454734912929,-1.8681556675599988,16.0000002,0.5555000000000003,1,32,282.39090698781285,723.001465,mp-1175568,Li9Mn2Co5O16,https://materialsproject.org/materials/mp-1175568,19.058824281039648,89.35514903746315,10.501393765587345,90.42384900344612
-7.433886866097561,-304.78936151,3.6027725091134064,-3.133157850509511,0.0001079,4.0191,1,41,385.63702735212144,836.6936562000002,mp-675472,Al17(NO7)3,https://materialsproject.org/materials/mp-675472,3.289216799168192,62.07526720279142,8.2237016047673,52.40254954462744
-7.026797554,-140.53595108,6.917569464263218,0.11911771804800113,6.5e-07,0.0,59,20,198.87322023228538,828.47755,mp-1247509,Co5CuN4,https://materialsproject.org/materials/mp-1247509,25.47283342712597,53.732663514508154,71.31377555762586,7.588431184415506
-7.391162675333335,-221.73488026,3.631635630961825,-3.3560722885833334,8.533333333333334e-06,4.662399999999999,11,30,279.7263248251927,611.7676632,mp-782035,Al2O3,https://materialsproject.org/materials/mp-782035,6.032473417347728,63.202348745996524,7.182433815256921,51.21825748098205
-7.2564825822222225,-65.30834324,10.985472877564032,-0.22283273222222197,2.466666666666666e-06,0.0,180,9,147.9355882210937,978.68364,mp-7558,TaGe2,https://materialsproject.org/materials/mp-7558,59.231565833005746,20.75131556151305,70.14252486708793,21.38267760334422
-8.15110110625,-65.20880885,4.993988802351558,-0.3068020492708321,0.0299789,0.0,156,8,93.7138571166055,281.8397772,mp-1217049,TiAl2Cr3C2,https://materialsproject.org/materials/mp-1217049,31.276899659474513,58.5887479852088,81.86974332665717,19.951538335139656
-7.487982688793104,-434.30299595,3.1048951301123924,-2.9377507753735634,3.0000758,0.4339,176,58,539.0205476618971,1007.8668632000001,mp-1214854,Al6B5O18,https://materialsproject.org/materials/mp-1214854,-8.124417654848736,69.28923161694446,-6.379353716543949,63.228643832681676
-4.607608032,-23.03804016,10.747937467745471,-0.2105291070000007,0.290616,0.0,166,5,75.8724600940218,491.089,mp-1215579,ZnPd4,https://materialsproject.org/materials/mp-1215579,63.286941764615854,60.40062922788704,84.77295353024743,17.60173359445615
-8.325980735,-33.30392294,7.138209554574876,-0.11982920618999947,1.73830195,0.0,194,4,32.49875867990709,139.7034,mp-12120,FeN,https://materialsproject.org/materials/mp-12120,30.802839172828712,55.08932962277586,90.73325299850781,6.412266735181321
-10.370513815,-41.48205526,10.796384178133726,0.1139295950000001,0.0002358,0.0,221,4,59.974764011179275,389.94,mp-1187395,Tc3Mo,https://materialsproject.org/materials/mp-1187395,65.56131621283376,62.835739502388535,89.69318390371086,16.231116091306642
-8.125528125,-48.75316875,6.587876051288995,-1.8550923775,0.0004636,0.0,136,6,65.53495568906911,259.9976,mp-1205302,TcO2,https://materialsproject.org/materials/mp-1205302,31.609436029046716,39.381578242408246,1.5718505699779473,-53.741879899830025
-6.85515316375,-54.84122531,4.233875664852527,6.747875000012726e-05,0.7349462,0.0,194,8,119.71071745606035,305.226364,mp-978963,Ti3Be,https://materialsproject.org/materials/mp-978963,57.0619426990847,55.53345190154909,81.14926084599024,9.972135148654036
-5.69525805,-22.7810322,17.015702938458105,-0.12079981999999935,2.8e-06,0.0,139,4,68.99632839117163,707.012,mp-973354,SbPt3,https://materialsproject.org/materials/mp-973354,52.066548213732204,32.02619076082074,55.863586575455805,38.15099583197024
-6.340568847999999,-63.40568848,4.7646059234296505,-2.5593035002500004,0.0,3.6483,148,10,101.02990511722292,289.8864,mp-3759,MgGeO3,https://materialsproject.org/materials/mp-3759,-1.6947036312116044,70.99872375816477,6.1594930622413,59.38868324272489
-4.1044867225,-16.41794689,8.068179780959552,-0.4148299116666667,1.1e-06,0.0,225,4,69.87002768296716,339.4825,mp-13396,LiIn2Rh,https://materialsproject.org/materials/mp-13396,89.47538884702715,2.8107320762993537,57.35072160600718,67.70951803530754
-8.028474383999999,-40.14237192,3.8364966972212495,-3.5127408395833344,0.0,1.8283,221,5,58.839876230319526,135.9432,mp-5827,CaTiO3,https://materialsproject.org/materials/mp-5827,24.813837195809693,-95.61480982539759,61.994802848415745,-42.19770281805429
-6.80777620875,-54.46220967,2.8744445451611305,-1.0020983654757138,0.0,3.8107,122,8,76.1721335140996,131.856324,mp-3524,LiPN2,https://materialsproject.org/materials/mp-3524,-80.1599869995043,30.36978723541076,-78.18019697638425,41.01865184766486
-5.832276035535713,-326.60745799,2.440235905755741,-2.0970533586942857,0.0,4.3404,1,56,424.64076201391,624.0284687999998,mp-626094,Al(HO)3,https://materialsproject.org/materials/mp-626094,-9.851089407687338,77.66860656835753,-27.662315177452463,75.88564406494494
-3.74605292375,-29.96842339,10.358032812129533,0.21218673625000006,0.13121785,0.0,194,8,136.75119298230834,853.0202,mp-1183225,Ag3Rh,https://materialsproject.org/materials/mp-1183225,53.00632785888706,30.5221791635384,55.98801209767991,41.98239442284364
-5.654924715,-22.61969886,11.545197706641748,0.06541622750000009,0.3572739,0.0,139,4,60.7198171831942,422.1655,mp-1186442,Pd3Rh,https://materialsproject.org/materials/mp-1186442,66.15802630770565,62.15714811801625,89.38047054192097,16.873429211891867
-4.3771412822222215,-39.39427154,2.507518150903631,-0.8409801135444445,4.9999995,0.0,225,9,127.77304722655815,192.9453192,mp-1207847,V(NF3)2,https://materialsproject.org/materials/mp-1207847,-41.78434542793002,66.05057763902097,-34.201841684588054,63.085615430088396
-11.44764241,-22.89528482,13.523285106130412,-0.08874231000000066,5e-07,0.0,65,2,33.9993670794092,276.88788,mp-1217895,TaMo,https://materialsproject.org/materials/mp-1217895,95.95575003594465,7.8609136137969085,64.41475335223474,62.96432624147951
-5.8052788484375,-185.76892315,4.227723506887582,-1.8699298850599997,21.9999995,0.6888000000000001,1,32,283.9760350112265,723.001465,mp-1175599,Li9Mn2Co5O16,https://materialsproject.org/materials/mp-1175599,10.356136509384381,87.2689709977702,8.162287741481762,95.7171990475878
-5.71500999,-91.44015984,3.981372652109822,-1.883661704435001,10.000000300000002,0.4575,2,16,139.93127325652878,335.504635,mp-1174124,Li5Mn(CoO4)2,https://materialsproject.org/materials/mp-1174124,5.826857222500631,86.75265273001995,-4.9790154799342226,94.47932319833149
-5.796038786875,-185.47324118,4.220536867456051,-1.8606898234974996,22.0000003,0.3735,2,32,284.4595832978339,723.001465,mp-1232429,Li9Mn2Co5O16,https://materialsproject.org/materials/mp-1232429,5.6716566924778675,95.53398313949522,2.835067099122616,90.00504220306635
-5.103196400000001,-20.412785600000003,7.7586911436720944,-0.3019101199999996,5e-07,0.0,139,4,64.65110573733061,302.07538,mp-1973,NbGa3,https://materialsproject.org/materials/mp-1973,58.676972012824706,48.6354088159854,83.89728534570689,18.486627146203187
-4.6739591825,-18.69583673,7.632350202579062,0.3886280669050004,2.6e-06,0.0,139,4,44.523705629264576,204.6447,mp-1225717,Cu3N,https://materialsproject.org/materials/mp-1225717,31.143623265119235,57.25620771306464,85.14992917139544,17.80150049843679
-4.430407432,-22.15203716,16.10157275759139,0.004330939999999828,1.9455543999999998,0.0,87,5,86.5054041659923,838.807776,mp-1069697,VAu4,https://materialsproject.org/materials/mp-1069697,51.254037398495704,34.219711627851225,56.10928928275415,35.96696966989523
-9.760299465,-39.04119786,18.297117821864727,-0.5841445049999976,1e-07,0.0,221,4,60.765098625615394,669.5573800000002,mp-1339,NbIr3,https://materialsproject.org/materials/mp-1339,59.972285041397285,58.00772252067251,82.55197741649204,13.516293393675726
-5.203088643333333,-15.60926593,9.646187679604916,-0.5078271733333336,5.04e-05,0.0,139,3,38.19065329809897,221.85218199999997,mp-13452,BePd2,https://materialsproject.org/materials/mp-13452,56.33665539801751,40.16204690471096,75.26241352314399,10.18383579010773
-4.845560984285714,-67.83785378,5.581836838850326,-1.1689799815178574,8.0000002,0.0,12,14,124.7507642599626,419.3448,mp-754083,Li2Ni5O7,https://materialsproject.org/materials/mp-754083,22.52357535822231,77.87286955499978,29.188823367533693,77.06179408799136
-6.893018465555556,-124.07433238,13.560464322357275,-0.21258290629629625,0.0,0.0,189,18,287.4357108228367,2347.2870000000007,mp-570692,In5B4Ir9,https://materialsproject.org/materials/mp-570692,52.48720270269264,19.67822870366061,49.27838795794094,7.593529637530981
-10.181474315,-40.72589726,15.891655293643131,-0.3183893400000013,3.45e-06,0.0,51,4,60.219774379410886,576.3140000000002,mp-11481,MoIr,https://materialsproject.org/materials/mp-11481,58.50644314993414,58.4309225427244,82.85950364797442,12.834476819250927
-6.3567242675,-25.42689707,18.0387357054673,-0.03660400749999937,2.8599153,0.0,166,4,59.299869056970685,644.1851949999998,mp-1226089,CoPt3,https://materialsproject.org/materials/mp-1226089,62.30672012161309,60.399385791506816,85.08382032075036,13.156101871833545
-9.484061315,-37.93624526,10.511564730554968,-0.3473483837500009,0.0009064,0.0,225,4,74.5617629026559,471.991792,mp-862612,ScPaTc2,https://materialsproject.org/materials/mp-862612,87.85714702619775,-2.5427143677160013,68.39701064248177,46.175959708325045
-5.7918655040625,-185.33969613,4.244672633641653,-1.8565165406849988,15.999999800000003,0.4075000000000002,1,32,282.8421087398866,723.001465,mp-1175888,Li9Mn2Co5O16,https://materialsproject.org/materials/mp-1175888,19.142091328559367,90.74229118473889,10.170616859525042,89.55653795463007
-6.9584969075,-27.83398763,10.772962335981433,-0.7659379925000005,7.8e-06,0.0,225,4,72.45712598668321,470.0750000000001,mp-865536,YbZrRh2,https://materialsproject.org/materials/mp-865536,96.7853941115235,2.610579172713064,73.23699892342752,55.742900668036754
-8.78925199,-35.15700796,14.640026868504016,-0.5713582949999996,0.0001222,0.0,225,4,69.50012333486181,612.743,mp-864939,Hf2CuIr,https://materialsproject.org/materials/mp-864939,95.02173137108494,7.502236380673372,64.83404847747089,65.19804689504271
-12.445911365,-49.78364546,19.98399860116904,0.12688806687500076,1e-05,0.0,139,4,61.69363303024439,742.461,mp-974416,Re3W,https://materialsproject.org/materials/mp-974416,67.66523398141636,63.360170531068356,89.16279498268317,17.385815845922004
-5.3687839,-21.4751356,3.714655841210948,-0.28790518000000104,0.0,0.0,139,4,58.95621384092151,131.8861158,mp-2554,Al3V,https://materialsproject.org/materials/mp-2554,57.48161969211996,55.70646381306738,82.21269000474692,10.193362504849716
-5.820078029642858,-162.96218483,4.182275714344638,-1.8795648348007143,7.00000045,0.4336000000000002,5,28,248.20224689876304,625.12847,mp-1174772,Li4MnCo2O7,https://materialsproject.org/materials/mp-1174772,19.088298703165574,90.69507743035291,9.88207970180615,89.16504826451404
-4.8530237241666665,-58.23628469,4.094964332835175,-1.441797020416666,1e-07,1.4342,139,12,140.28355995923792,345.9456,mp-5127,LiCuO,https://materialsproject.org/materials/mp-5127,-13.903644225056713,48.92220873251028,-2.8071397965558553,56.021046683895385
-8.22755010125,-65.82040081,6.615265318626668,-0.2388067700000001,0.8699252000000001,0.0,200,8,113.57091809573113,452.4445,mp-1216430,V6SiSn,https://materialsproject.org/materials/mp-1216430,50.24533569065386,41.04139344535851,80.65704511900678,-2.8802906620656565
-6.103178615,-24.41271446,8.934657863119021,-0.6178918025,3.66e-05,0.0,225,4,67.49795130164692,363.177912,mp-867909,ScCdRh2,https://materialsproject.org/materials/mp-867909,96.17237129270616,8.68645338856652,62.9201737732461,65.14261659596342
-9.789087363333334,-58.73452418,10.179641309942443,-0.23261206079333385,1.805e-05,0.0,194,6,68.51406909022802,420.0134,mp-1019316,Tc2N,https://materialsproject.org/materials/mp-1019316,64.52664194920781,59.490512365702685,74.99953817316279,9.774003060976886
-3.9257706333333338,-94.2184952,2.7115747153816145,0.22588579666666675,5.625e-06,0.0,10,24,394.261058786228,643.808,mp-1073330,MgSi2,https://materialsproject.org/materials/mp-1073330,58.42495328351221,47.813115747172745,73.4856552837309,8.532983210798438
-3.2114015,-19.268409,7.8147651615261475,-0.07625139111111068,0.00016245,0.0,63,6,103.14900177369185,485.4358772,mp-985805,AlAg2,https://materialsproject.org/materials/mp-985805,47.447290136463614,34.89067067911949,69.39604338683097,18.913057714259786
-6.5079191750000005,-78.0950301,2.9549409281940995,-2.4409413208333333,0.999998575,1.0877000000000003,62,12,132.57680233570565,235.9213544,mp-1182865,AlO2,https://materialsproject.org/materials/mp-1182865,5.614093411621608,65.83525051457374,2.4850102524148587,55.987379887993136
-6.4056125925,-51.24490074,10.355929477220645,-0.2522047949999999,1.10099065,0.0,194,8,118.72117220743073,740.403,mp-979980,VPd3,https://materialsproject.org/materials/mp-979980,58.85910445136215,56.90389328027098,83.57338452799678,12.086883110791359
-8.99305718125,-71.94445745,11.030292313675599,-0.24189648750000006,0.0018269000000000002,0.0,200,8,142.93939425833554,949.4888489999997,mp-1220356,Nb6PtAu,https://materialsproject.org/materials/mp-1220356,64.30051027326115,23.007409275226888,69.8333606108384,25.388070736680678
-4.0244973075,-16.09798923,8.763012076467348,0.08180845000000048,0.0003424,0.0,221,4,59.19757618627457,312.39799999999997,mp-1183969,Cu3Sb,https://materialsproject.org/materials/mp-1183969,58.16434048030524,56.30139507593239,83.70864790533538,11.44423049003731
-6.526639575,-26.1065583,11.201723812051457,-0.6824879412499998,1.4599999999999999e-05,0.0,225,4,74.60277273803077,503.25805999999994,mp-865761,ThZnRh2,https://materialsproject.org/materials/mp-865761,88.08062584345005,-2.518801261267773,68.90249890411866,46.41816105521083
-6.628082606,-66.28082606,4.7698368496507735,-2.29541398725,3.00000005,0.7975000000000003,2,10,93.2391028091489,267.8258672,mp-776216,AlCoO3,https://materialsproject.org/materials/mp-776216,13.471299175450218,53.750102186178744,6.8313717423806155,49.966239743189405
-7.337549337068966,-425.57786155,3.1774953266114703,-3.400013904198276,0.0,4.6850000000000005,194,58,635.3537685647001,1215.7700492000001,mp-1252068,KAl11O17,https://materialsproject.org/materials/mp-1252068,3.051608433398219,61.76555708636287,8.002315925417774,52.85560022909584
-5.935777483076923,-77.16510728,5.441175214419278,-1.5698087380769228,1.9999999,0.31910000000000016,8,13,123.23359714616795,403.80598,mvc-12181,Ca(CoO2)4,https://materialsproject.org/materials/mvc-12181,14.589383951735792,54.52550261136813,4.256619960764434,49.327829398761004
-4.96501006,-19.86004024,8.85913133961819,-0.8330025462500004,4.6e-06,0.0,225,4,75.80073081534216,404.404,mp-1184235,ErMgPd2,https://materialsproject.org/materials/mp-1184235,88.0265830807378,-2.536568705262036,68.21515833228271,45.79315359668091