energy_per_atom,energy,density,formation_energy_per_atom,total_magnetization,band_gap,sgr,num_sites,cell_volume,weight,mp_id,formula,URL,tsne_cry_0,tsne_cry_1,tsne_xrd_0,tsne_xrd_1
-6.981019534583332,-167.54446883,3.5513198376066857,-2.872069233125,0.0053319,0.0,12,24,205.9012954820364,440.3518,mp-766202,Li7Ti3(SiO6)2,https://materialsproject.org/materials/mp-766202,5.588516580839039,83.35382161550295,13.547305439707381,95.27280426983252
-5.5243916515625,-176.78053285,4.385104785529801,-1.7291929862499993,17.9999985,0.0,10,32,276.80988780621607,730.991765,mp-1175392,Li9Co7O16,https://materialsproject.org/materials/mp-1175392,9.049281528056284,84.54404071635365,11.663568483358972,94.63977543935266
-5.070671628636363,-111.55477583,4.6571652292123416,-1.2853131061363634,1.0,0.2599999999999998,41,22,204.09136661153752,572.39679,mp-757774,Li2Co(NiO3)2,https://materialsproject.org/materials/mp-757774,6.831555505487764,75.56038095345197,18.95378735258053,89.14523246052141
-5.6353209024,-281.76604512,4.603400394952807,-1.5637347899000005,7.9999984,0.0,1,50,460.4894095505343,1276.5837350000004,mp-758732,Li9Co13O28,https://materialsproject.org/materials/mp-758732,4.4604888090267005,76.94064444336264,17.237936431041696,92.63328236547436
-5.644464196666667,-67.73357036,4.7741354138933305,-1.0815226225000008,1.85e-06,0.1953999999999999,227,12,126.5118096509514,363.72798,mp-504097,CoO2,https://materialsproject.org/materials/mp-504097,4.295749270226834,74.71212124019122,19.520386297504693,88.18568921717714
-4.912836922105264,-373.37560608,4.629594453477586,-1.2929319830263166,9.0007078,0.0,6,76,690.593529982436,1925.3795899999998,mp-1176867,Li8CoNi9O20,https://materialsproject.org/materials/mp-1176867,8.688738010661575,79.28335399264903,23.043834041256154,87.02894568806472
-4.952882941428571,-34.67018059,6.096158255770037,-1.1121550794642858,1.63e-05,0.0,221,7,66.8930350598941,245.5772,mp-1147702,Li(CuO)3,https://materialsproject.org/materials/mp-1147702,27.158885834772352,56.79887090949364,57.97682245931176,34.09778045965453
-5.3139974455555565,-47.82597701,4.725225221302118,-0.9312489669444446,2.0000001,1.0824,12,9,95.78171894289906,272.55619,mp-753469,Co2NiO6,https://materialsproject.org/materials/mp-753469,4.289919055423183,74.69966520499155,19.445633258915173,88.27088501341338
-5.801384876818182,-127.63046729,4.396457004275793,-1.6192374357254542,12.0000004,0.7336999999999998,12,22,215.04722291993647,569.36082,mp-1177382,Li4MnCo5O12,https://materialsproject.org/materials/mp-1177382,7.365882836830073,75.66537560153351,18.191622282749012,89.0403800695096
-6.0797438375,-48.637950700000005,3.9196958792807233,-2.3665308893750003,4.0000005,0.8483999999999998,12,8,69.38979294574615,163.7943336,mp-1222767,Li2AlCoO4,https://materialsproject.org/materials/mp-1222767,5.765513385374423,83.49177852838228,13.160544749819977,95.23741132324318
-4.851539309791667,-232.87388687,4.477218428159722,-1.2674984443229167,7.000000200000001,0.4270000000000001,1,48,447.68915524986807,1207.0792,mp-759044,Li9Mg(Ni6O13)2,https://materialsproject.org/materials/mp-759044,7.8412158086133275,78.85723854621368,22.54033525030773,87.43009339170393
-6.360570840833333,-76.32685009,4.411528092940414,-1.4238951384933325,3.99999995,1.1610999999999998,74,12,133.90287745970062,355.73767999999995,mp-753606,MnCoO4,https://materialsproject.org/materials/mp-753606,4.688849269881534,73.02676839623092,18.39767768448761,86.2852981939896
-5.4818158370833325,-131.56358009,4.313495783198697,-1.7212840643749996,11.400851,0.0,12,24,206.05016210853088,535.245775,mp-1174340,Li7Co5O12,https://materialsproject.org/materials/mp-1174340,7.145684277672904,83.9370883741358,13.174862320698216,93.92016435038522
-5.3742829975,-64.49139597,4.797814625108184,-0.9464862450000004,3.0000023999999996,0.0,166,12,125.80442741837538,363.488185,mp-753483,Co3NiO8,https://materialsproject.org/materials/mp-753483,4.309651442076501,74.75688855581359,19.572422616515862,88.19657675622469
-5.742317347708332,-275.63123269,4.516303548303501,-1.1384727293749997,6.499999975,0.10239999999999994,1,48,530.3952101223665,1442.5591399999996,mp-1178259,FeCo3O8,https://materialsproject.org/materials/mp-1178259,4.55404960964513,73.32069095071094,18.60404303493495,86.18974608848129
-5.8400338538888885,-210.24121874,4.475782229851868,-1.6786840562499998,11.0059236,0.0,10,36,349.37622080320534,941.701365,mp-759810,Li6Fe3Co7O20,https://materialsproject.org/materials/mp-759810,8.612467877135161,77.17452899600448,21.36060748390072,85.9895488397628
-5.96439579,-11.92879158,12.95568529022949,0.21201769499999926,0.17427420000000002,0.0,166,2,31.77454667071661,247.908069,mp-1216391,VAu,https://materialsproject.org/materials/mp-1216391,62.28558857783002,58.61175329843387,84.04254942164303,14.450305503630144
-5.728495867674417,-246.32532231,4.695986517426529,-1.1499019036046514,15.0000011,0.486,2,43,470.9993630513494,1331.981125,mp-766681,Co15O28,https://materialsproject.org/materials/mp-766681,4.383244797212777,76.39094388558945,17.704491413883574,92.53577005473822
-4.874287517741936,-151.10291305,4.5916734254762295,-1.3942042296774193,5.000006099999999,0.06959999999999987,5,31,267.5192082663952,739.7361999999998,mp-769526,Li7MgNi7O16,https://materialsproject.org/materials/mp-769526,5.814747398678694,81.275562832635,15.720451489242642,93.23623597364136
-5.316033253888889,-95.68859857,4.578702099699711,-0.9332847752777774,2.00017055,0.0,64,18,197.6936626291281,545.11238,mp-752759,Co2NiO6,https://materialsproject.org/materials/mp-752759,4.290524258523448,74.71877240230683,18.978755264587086,88.32303189336163
-5.418086091538462,-70.43511919,4.427112157485541,-1.1841219623076922,6.0000002,0.16510000000000002,12,13,138.94206908849728,370.429185,mp-1176785,LiCo3NiO8,https://materialsproject.org/materials/mp-1176785,5.841817857122224,77.2195108395631,20.820031306365358,89.44571174657813
-6.029520428333334,-72.35424514,4.456399210959118,-1.2676030608333342,4.9999982,0.3745999999999999,166,12,132.94706457214778,356.790885,mp-754623,CrCo3O8,https://materialsproject.org/materials/mp-754623,4.584184159643155,73.2693355350008,18.48960985509748,86.54633133044861
-5.639003994199999,-281.95019971,4.599326302310988,-1.5674178817,7.9999981,0.031299999999999883,1,50,460.89731201097567,1276.5837350000004,mp-758645,Li9Co13O28,https://materialsproject.org/materials/mp-758645,4.4405011587484315,76.94758256162406,17.203354885378328,92.65145976194721
-5.566032786875,-89.05652459,5.400485248198182,-1.5601907043749996,0.9999998999999999,0.0,12,16,136.2886043427602,443.24438,mp-754464,Li3Co4NiO8,https://materialsproject.org/materials/mp-754464,10.532548999940463,79.5942046233858,28.293267341972033,78.11404227773387
-5.129587946818182,-112.85093483,4.402911568082941,-1.3160172920890907,7.0000005000000005,0.4642,5,22,214.27978056613918,568.161845,mp-779228,Li4MnNi5O12,https://materialsproject.org/materials/mp-779228,7.373617432351683,75.48295241878263,18.193808006076036,89.07498559317257
-4.928364828666667,-73.92547243,4.2378131742929614,-1.4628752366666664,1.0000001,0.2485999999999997,3,15,136.83139269051924,349.2034,mp-772324,Li3MgNi3O8,https://materialsproject.org/materials/mp-772324,4.22872218658192,77.28729832879887,17.194970853428806,92.83501790221256
-7.51361961,-30.05447844,3.163437071448291,-1.2486790974399993,0.0,2.8792000000000013,156,4,34.1778550215136,65.111082,mp-1227309,BeSiN2,https://materialsproject.org/materials/mp-1227309,6.138388593758265,57.65454838715142,59.829977703062326,35.405920325518714
-5.3627947675,-64.35353721,4.630337997114856,-0.9349980150000002,3.0000033,1.1472,166,12,130.35470027184505,363.488185,mp-752738,Co3NiO8,https://materialsproject.org/materials/mp-752738,4.319911456065442,74.77829281652035,19.836137349824828,88.319702126755
-4.862864707777779,-175.06312948,4.9984887320294655,-1.3217030565972214,3.9999998999999997,0.0,2,36,309.10353613771827,930.4512,mp-766892,Li4Ni5O9,https://materialsproject.org/materials/mp-766892,10.652179945278887,79.79051884167372,12.488685749482467,94.47980547441077
-6.387468618333332,-38.32481171,4.342674997336344,-1.4507929159933326,4.0,1.1515,10,6,68.01295353685842,177.86883999999998,mp-752945,MnCoO4,https://materialsproject.org/materials/mp-752945,4.805598627187474,72.75736228811087,17.66422209789098,86.13536151739163
-4.600493232461538,-299.03206011,4.601498463104451,-0.6431890876538459,5.9998584,1.0205,2,65,692.2980289332362,1918.4182,mp-685529,Li2(NiO2)21,https://materialsproject.org/materials/mp-685529,4.406019380675355,74.91733980078651,20.080270791779125,88.53295469606421
-5.4597677146666665,-81.89651572,4.383679103393243,-1.739545975666667,2.9999995,0.2509000000000001,10,15,133.7104136997035,352.9839,mp-753399,Li3SiNi3O8,https://materialsproject.org/materials/mp-753399,8.168048835404283,79.76564844642743,16.45244516179541,92.6314298199392
-4.434369406666666,-66.5155411,4.9434287246947175,-0.5681024294999996,2.0000245999999997,0.0,12,15,154.57716741767192,460.1766,mp-1215795,Zn(Ni2O5)2,https://materialsproject.org/materials/mp-1215795,4.275153866221279,73.67121164208606,17.344340496915223,86.98599641924825
-5.6442515957142865,-79.01952234,4.55360795281485,-1.460591296428571,3.00000015,0.0,227,14,137.70094399453328,377.60998,mp-25383,Li(CoO2)2,https://materialsproject.org/materials/mp-25383,2.032213754893497,68.9500367263162,17.395187168516053,84.59835353072225
-4.570250258333333,-27.42150155,4.734852386735404,-0.5478879708333331,0.0,1.351,164,6,63.612516895092725,181.3844,mp-510753,NiO2,https://materialsproject.org/materials/mp-510753,4.331293639250236,74.79092897723847,19.622409849235652,88.31671277789344
-5.820365885625,-186.25170834,4.416111010690275,-1.3773439445312494,10.9926067,0.0,10,32,343.65727469790465,913.937365,mp-757626,Li2Fe3Co7O20,https://materialsproject.org/materials/mp-757626,8.31719524429152,76.69437937529857,20.51638206906285,86.40838926555746
-9.340141486666667,-56.04084892,8.37188002278037,-0.18466696285666728,0.0002333,0.0,221,6,66.64864913931196,336.0201,mp-1019319,TcN,https://materialsproject.org/materials/mp-1019319,50.626595057166824,19.377138727630893,58.17679143932191,34.00194820230457
-8.32350888375,-66.58807107,7.105303477935772,-0.16059823993999878,0.39187225,0.0,194,8,64.94297395931673,277.88539,mp-1247540,CrCoN2,https://materialsproject.org/materials/mp-1247540,29.86778113278851,57.398091933444874,85.13344945397891,19.009819272961717
-5.857182635357143,-328.00222758,4.5539578623735455,-1.6384625839285718,2.999999875,0.20150000000000026,1,56,546.2571803410099,1498.08714,mp-761944,Li2FeCo3O8,https://materialsproject.org/materials/mp-761944,2.112832717499637,69.0673027054501,18.109883348045038,84.89416287619197
-5.109170746,-204.36682984,4.678062282238547,-1.4937755283750007,10.9999969,0.0,12,40,346.8170945561254,977.051385,mp-1178111,Li10Co3Ni7O20,https://materialsproject.org/materials/mp-1178111,10.523311490974496,80.06053785682488,23.36402878114736,85.75073926424496
-5.599406162307692,-72.79228011,5.277832741956488,-1.109440364615384,4.0000001,0.0,12,13,132.90439980116707,422.42138,mp-755484,Co4NiO8,https://materialsproject.org/materials/mp-755484,4.248081825717262,80.37040929853538,16.606631206491322,92.7393867694403
-6.7246743066666665,-80.69609168,4.287239050950048,-1.6011315402399997,10.0000005,1.2419000000000002,166,12,136.23737705130742,351.7425300000001,mp-756482,Mn3CoO8,https://materialsproject.org/materials/mp-756482,4.934165812412585,72.54078209511722,17.673314555617694,86.00315588178518
-5.349651483035714,-299.58048305,4.5320016505568095,-1.3533346702471425,4.999998625,0.20740000000000025,1,56,546.5200518491389,1491.58178,mp-774906,Li2MnNi3O8,https://materialsproject.org/materials/mp-774906,2.0532029786175165,68.97775538247745,18.299796274404315,84.9747293594687
-6.767211538,-33.83605769,8.70795284982023,0.17700029104800025,1.1796278999999998,0.0,166,5,56.57808267941034,296.6984,mp-1246508,Fe(PdN)2,https://materialsproject.org/materials/mp-1246508,28.848147341815128,56.6895529315284,74.46921548656749,9.070850601723707
-4.563206678333334,-54.75848014,4.810253310167325,-0.5408443908333341,0.0,1.4986999999999997,227,12,125.2307760218552,362.7688,mp-25428,NiO2,https://materialsproject.org/materials/mp-25428,4.320010757565571,74.77827135196688,19.548169125470267,88.2155096261838
-5.9513781833333335,-142.8330764,3.9176401264730685,-1.2248244325000013,2.0000233875,0.9529,194,24,297.8692368117488,702.7504,mvc-11541,FeO2,https://materialsproject.org/materials/mvc-11541,5.059292490782884,72.34508248678091,17.339945783055924,88.66346662226549
-6.389892545833334,-76.67871055,4.1291552750160285,-1.4532168434933332,4.00000365,1.2374999999999998,4,12,143.0598430660213,355.73767999999995,mp-756184,MnCoO4,https://materialsproject.org/materials/mp-756184,4.849501156001017,72.67192687353459,18.039854991544434,87.8758056289575
-5.425463775,-54.25463775,4.600521754231159,-1.2416893002499996,5e-07,0.1994999999999998,8,10,102.63486459476843,284.34979,mp-766810,LiCo2CuO6,https://materialsproject.org/materials/mp-766810,6.721182058832071,77.52039448910078,21.551620423541394,88.13185716888177
-4.9596008569230765,-64.47481114,5.13814779567494,-0.8438822576923078,0.9999998999999999,0.2277,12,13,136.2850298959531,421.701995,mp-756594,Co(NiO2)4,https://materialsproject.org/materials/mp-756594,4.440055123842937,80.15363632458528,13.366584301442053,93.3213692848898
-5.486983369583334,-131.68760087,4.3455860750476525,-1.7264515968750007,9.961567599999999,0.0,12,24,204.52856991742127,535.245775,mp-1174377,Li7Co5O12,https://materialsproject.org/materials/mp-1174377,7.116151721251044,83.89140812064706,13.460263731297564,93.83397362566835
-5.5226601125,-176.7251236,4.397565787718892,-1.7274614471874994,15.265076,0.0,2,32,276.02551554564684,730.991765,mp-1175451,Li9Co7O16,https://materialsproject.org/materials/mp-1175451,9.033477780970092,84.74407969168091,11.437581756092149,94.51179048157124
-4.5771157633333335,-27.46269458,3.295154947579308,-0.5547534758333335,0.0,1.7874,166,6,91.40567962312088,181.3844,mp-35925,NiO2,https://materialsproject.org/materials/mp-35925,4.3228224816327705,74.78359802374173,19.53785233957761,89.76066016151584
-5.4952851927272715,-60.44813712,4.473776729325767,-1.506071691223636,5.0000003,0.4862000000000002,5,11,104.74584090561173,282.20324500000004,mp-762624,Li2Mn(NiO3)2,https://materialsproject.org/materials/mp-762624,9.170274819874368,77.65877223488822,21.69499228006845,85.91468592143181
-6.177986205333334,-92.66979308,4.275780832613945,-1.8470511134613328,7.0000000999999985,0.0,1,15,146.24082350046032,376.56068,mp-757164,Li3Mn2(CoO4)2,https://materialsproject.org/materials/mp-757164,8.71345775639654,74.99801552548334,17.848197317156387,88.89911495018444
-6.277833359375,-100.44533375,4.53692937888083,-2.08017032625,3.00000015,1.9215000000000004,74,16,138.21001609864211,377.61779,mp-757085,Li2CrCoO4,https://materialsproject.org/materials/mp-757085,10.767174442298447,80.27235854028866,23.688932186725737,84.89110991952276
-5.771362798125,-92.34180477,4.6154846913801455,-1.81080888875,3.00000025,0.7379000000000002,15,16,138.6271697771156,385.31559,mp-1177967,Li2FeCoO4,https://materialsproject.org/materials/mp-1177967,10.812691194143731,80.16232323797188,23.717069347854075,84.82454995353764
-4.776737854375,-152.85561134,4.835585661632649,-1.0314275780468742,4.00000035,0.0,1,32,309.98258357855144,902.6872,mp-1177872,Li2Ni5O9,https://materialsproject.org/materials/mp-1177872,7.4921114583757245,78.79100703820521,12.380052547508495,94.34911026888922
-5.65866280625,-135.80790735,5.098015742704089,-1.6207958927083332,12.000453,0.0,5,24,208.21172356072762,639.2301649999998,mp-756433,Li5Co7O12,https://materialsproject.org/materials/mp-756433,10.871059024481234,79.54195878773461,28.442086470644288,77.5825650917083
-6.425953485,-12.85190697,7.210140845356448,0.4394108488099997,2e-05,0.0,225,2,16.743272683730194,72.70009999999998,mp-1009488,NiN,https://materialsproject.org/materials/mp-1009488,29.7226935806708,58.30091556588109,57.538154105085056,42.19724573317107
-6.651843811249999,-266.07375245,2.702684681387121,-1.233154630201999,0.0,3.3129,206,40,270.5830542865263,440.399568,mp-18337,Be3N2,https://materialsproject.org/materials/mp-18337,7.334382684272874,59.58333541926444,59.76681224418046,35.45586751211611
-5.684727573200001,-142.11818933,4.487766300561914,-1.2279847559999997,6.999999799999999,0.11389999999999988,2,25,271.73759533437044,734.3969599999998,mp-674388,Li(CoO2)8,https://materialsproject.org/materials/mp-674388,4.960596450512588,76.42222243464137,20.574509318843717,89.56707913661786
-6.251800442777778,-112.53240797,4.036645274802886,-1.3707397932688898,6.000000900000001,1.0134,64,18,217.66687885092801,529.1317799999998,mp-25285,Mn2NiO6,https://materialsproject.org/materials/mp-25285,4.958507345392219,72.48341755589631,17.740630676022363,87.3028134411223
-6.703885586666666,-80.44662704,3.5666544773919995,-2.8536923102083325,2.9999998,3.7770000000000006,12,12,103.71975392097832,222.7785772,mp-867723,Li3Al2CrO6,https://materialsproject.org/materials/mp-867723,5.589465630578252,83.49007337497197,13.351285164811747,95.38347659203691
-5.518281020625,-176.58499266,4.389140251488842,-1.7230823553125,15.4072315,0.0,10,32,276.5553830933651,730.991765,mp-1175449,Li9Co7O16,https://materialsproject.org/materials/mp-1175449,7.328755788828832,84.13670655598601,12.34634640713557,94.2824749930254
-5.293952057,-105.87904114,4.880837937558155,-1.5569264998749994,2.0000002,0.4898000000000002,2,20,166.32661814706225,488.88538499999987,mp-755076,Li5Co3(NiO5)2,https://materialsproject.org/materials/mp-755076,4.197784484426222,80.71812768721142,14.395994152797543,92.14641959913263
-9.121804576,-45.60902288,9.476165798537119,0.09874268025000106,0.0022537,0.0129999999999999,221,5,64.16378111135961,366.1622,mp-21862,VRu3C,https://materialsproject.org/materials/mp-21862,61.5324338284242,54.790432346939824,80.76097159488533,16.055691222069914
-5.957654030357142,-166.81431285,5.045292550592227,-1.8173705439285717,0.0,0.06899999999999995,59,28,271.42264064919976,824.6759599999999,mp-770890,Mg(CoO2)2,https://materialsproject.org/materials/mp-770890,7.0095129899594815,74.86086906945887,17.718173105544416,91.12397151046095
-4.84495157125,-155.03845028,5.045333845770724,-1.2978653234374995,2.9999993,0.0,2,32,274.10015758897003,832.818,mp-768059,Li7Ni9O16,https://materialsproject.org/materials/mp-768059,10.537755054471488,79.67494396448149,14.055338608959428,91.78978608223436
-5.5245564690625,-176.78580701,4.3694061623272455,-1.72935780375,17.999997399999998,0.0,2,32,277.8044243555711,730.991765,mp-1175405,Li9Co7O16,https://materialsproject.org/materials/mp-1175405,9.104639104664171,84.59863750681292,11.511132234248528,94.68538941914116
-5.52040768125,-176.6530458,4.37470613223197,-1.7252090159374998,17.1062003,0.0,2,32,277.467863442911,730.991765,mp-1175413,Li9Co7O16,https://materialsproject.org/materials/mp-1175413,9.121493427692208,84.6504620519917,11.39374783992738,94.70752042136765
-5.792099348888889,-104.25778828,4.3174313594812475,-1.1746203825,6.000115,0.0,64,18,207.46609610994872,539.41558,mp-753096,Fe(CoO3)2,https://materialsproject.org/materials/mp-753096,4.8944401701240565,72.57871266902146,17.54998332305453,86.77063082703138
-5.324848966333334,-159.74546899,4.982142165558146,-1.4550749630000004,0.9999998999999999,0.0,8,30,256.10053287194506,768.382575,mp-759805,Li6Co5Ni3O16,https://materialsproject.org/materials/mp-759805,1.6699124345616214,73.47413438678572,2.9082847879916613,58.295389655115535
-5.61967245,-11.2393449,13.604631000758847,0.2470537999999989,2.87195,0.0,166,2,30.85739554896694,252.811569,mp-1224962,FeAu,https://materialsproject.org/materials/mp-1224962,62.265189687991274,58.675709109898996,84.05782866461053,14.33928016294247