energy_per_atom,energy,density,formation_energy_per_atom,total_magnetization,band_gap,sgr,num_sites,cell_volume,weight,mp_id,formula,URL,tsne_cry_0,tsne_cry_1,tsne_xrd_0,tsne_xrd_1
-4.180701834285714,-58.52982568,4.359009362047535,-0.19421609778735616,2.1600000000000003e-05,0.006199999999999761,8,14,419.32989182643064,1100.7648,mp-1219857,Rb2InGe4As7,https://materialsproject.org/materials/mp-1219857,13.944755234528856,22.840976578983184,-30.17130336898493,-38.39412160371014
-3.188757203333333,-19.13254322,3.343797014977818,-1.102263826479885,0.0,0.3098,14,6,185.6648977506544,373.87,mp-755459,Rb2O,https://materialsproject.org/materials/mp-755459,-3.594090834243321,-27.11867484242792,-21.445200904840924,-65.2589492379756
-3.3137218861111117,-59.64699395,5.134321346080783,-0.4102409045555555,0.0,0.0,63,18,545.4717567905464,1686.5772,mp-29828,K2Cu2Te5,https://materialsproject.org/materials/mp-29828,10.935929629628642,2.4088238570852614,-30.278833455537047,-33.567637052399085
-3.2572903,-39.0874836,4.2524457941363885,-1.070501002121149,0.0,2.017,11,12,357.539149909662,915.6158437999999,mp-579536,CsCu2ICl2,https://materialsproject.org/materials/mp-579536,-2.433556763710409,-0.9376220018001074,-32.1093938410573,-35.378303167377645
-4.190181725,-58.66254415,4.280431931135872,-0.7266860163392858,0.0,0.6583000000000001,5,14,373.3090604131356,962.2923544,mp-1228721,Al4InAgSe8,https://materialsproject.org/materials/mp-1228721,13.796872791222874,14.532278265714671,-16.413156934968402,-72.8332694885672
-6.024275487142857,-84.33985682,3.8190514518178795,-1.559854959107143,2.99901565,0.0,74,14,336.89528305963574,774.8209400000002,mp-1247144,LaMgMoS4,https://materialsproject.org/materials/mp-1247144,12.766276004102945,7.870713389741198,-24.091425412234305,-78.54908368790059
-5.756092029166666,-69.07310435,6.344997037398901,-2.166227263619792,0.0,1.2851000000000004,8,12,265.00667185877546,1012.60284,mp-1216548,Tm4CdS7,https://materialsproject.org/materials/mp-1216548,11.341517723179061,-2.881279838546549,-5.1973019927295985,-16.841542551756216
-6.384768315,-76.61721978,6.4350958857001554,-2.456331758619792,0.0006839,0.0,12,12,270.71585215891787,1049.1065999999996,mp-1102510,Ho5S7,https://materialsproject.org/materials/mp-1102510,10.961876851201012,-2.9406897251446336,-5.062614346139032,-16.564218290226027
-3.590964001875,-57.45542403,5.381034018265757,-0.10923741268973243,0.0,0.1682999999999999,31,16,413.77023800813697,1340.836724,mp-30908,Ag3PSe4,https://materialsproject.org/materials/mp-30908,16.222754457473723,12.36070466171578,-5.8317923904904365,-13.232793175407268
-4.243394554,-42.43394554,4.0246079054470645,-1.2550578232413792,4.9999998,1.2909000000000002,194,10,352.81578282850546,855.1109938,mp-23048,CsMnBr3,https://materialsproject.org/materials/mp-23048,-0.29955778401235983,12.813018679676993,-26.79717074421483,-68.16987905463218
-3.6895221425,-44.27426571,4.366840821506757,-0.8284108815625005,0.0,1.6340000000000001,205,12,277.17220657435576,728.9,mp-1103590,MgSe2,https://materialsproject.org/materials/mp-1103590,20.08638557476146,22.689384729234355,23.28522105832728,-40.73932344269245
-4.932291718,-24.66145859,4.706375584910849,-0.8556216648663793,3.9999995999999998,0.0,119,5,111.64397468685767,316.4264519,mp-1228825,CsFeCuS2,https://materialsproject.org/materials/mp-1228825,-7.9364366644342015,8.828161073820079,23.949550879804182,-40.87098286304878
-6.750094302678571,-756.0105619,3.4548551508612384,-2.858773569216122,0.0,5.2009,61,112,1411.9205367518812,2937.588832,mp-735022,SrPHO4,https://materialsproject.org/materials/mp-735022,-21.035327555555703,-31.007597810588145,-6.968959912752934,-15.319220860549883
-4.3084345325,-51.70121439,5.633154270209329,-0.3031043223958327,4.92338125,0.0,14,12,284.8685601124149,966.37809,mp-1221690,MnCdSe4,https://materialsproject.org/materials/mp-1221690,17.125939886981236,11.216534415458447,24.72089176056201,-41.7073927958206
-4.032209693611112,-290.31909794,4.56442972942392,-0.7557815052314822,0.0,1.0698000000000003,205,72,1921.3640153960473,5281.376,mp-556528,In4GeS4,https://materialsproject.org/materials/mp-556528,-0.8156468669606111,-1.9631844436576282,-30.870894325831625,-36.279936389588656
-5.237639884,-26.18819942,6.289699958152478,-0.02369103724137957,3.822026,0.0,139,5,128.86699990459906,488.1154519,mp-12119,Cs(FeSb)2,https://materialsproject.org/materials/mp-12119,19.601483185066712,11.171990978815145,5.612478457653936,-53.62906574933399
-3.59039903375,-114.89276908,4.449912934723026,-0.9338372304319328,5.5e-07,1.6197,15,32,1210.9662334186548,3245.1476152,mp-1200720,CsInSe2,https://materialsproject.org/materials/mp-1200720,-0.5208552729194915,-4.454039799888577,-28.58097611100964,-34.4900982594173
-5.57833086,-22.31332344,4.247622888372669,-1.5558189349479177,1e-07,1.2647000000000004,160,4,84.814679252883,216.954112,mp-1094066,ScAgS2,https://materialsproject.org/materials/mp-1094066,8.106956705521297,27.619726433426088,22.55807155677809,-46.04936967798231
-4.238258101439394,-559.45006939,3.2118982597479815,-0.6071350167424238,0.0,1.7088,14,132,4025.0024005313508,7785.362399999999,mp-1197968,K10Ge18WO4,https://materialsproject.org/materials/mp-1197968,-2.3215504161136007,3.232148908076702,-33.90429794269136,-32.728689687535955
-8.052939777692307,-418.75286844,6.025387278659422,-3.580598711153846,3.975e-06,3.7687000000000013,62,52,833.6688398862902,3025.02832,mp-1211987,La4GeO8,https://materialsproject.org/materials/mp-1211987,-10.282906948744197,-61.603834576581725,-9.794276673501976,-66.48028725993164
-7.1264872750000015,-99.77082185,3.9453101236141066,-1.9905313173214287,4.9999662,0.19890000000000008,36,14,303.8903186874439,722.01949,mp-1216082,Y2MnS4,https://materialsproject.org/materials/mp-1216082,17.320732433674607,5.577459014617214,-2.963368669274681,-16.54036403537298
-5.867480677142857,-41.07236474,6.79411537257931,-0.10992366142857132,8.742875999999999,0.0,12,7,163.8116186769679,670.2372,mp-1025380,Cr2FeTe4,https://materialsproject.org/materials/mp-1025380,19.50828744676928,10.390155191223457,26.682638613904643,-40.57253071486202
-4.174998029166667,-50.09997635,5.418057555642314,-1.360986938664691,0.0,2.419,63,12,395.17617387234225,1289.3929037999999,mp-11122,CsDyCdSe3,https://materialsproject.org/materials/mp-11122,10.181094857810272,0.6873640071872532,-3.0788009207212217,-20.154189109177988
-5.630910195,-78.83274273,5.701988176923027,-0.3142548620000006,15.014676099999999,0.0,12,14,384.3765029781362,1319.8788,mp-1103869,KCr5Te8,https://materialsproject.org/materials/mp-1103869,20.438832299142625,9.807712731536316,27.22859004321873,-40.5818662509653
-5.268306223,-52.68306223,4.014944331250188,-0.2607978545848212,4.9898210999999995,0.0,148,10,267.0066397402531,645.583614,mp-8695,MnPSe3,https://materialsproject.org/materials/mp-8695,6.383420068527799,0.5093191067065942,8.461342179008263,-54.74313759529964
-4.71737797725,-188.69511909,4.733128907389943,-0.3384561606874996,4.9905827875,0.14869999999999986,55,40,1163.4249599049474,3316.17636,mp-655834,MnSbSe2Br,https://materialsproject.org/materials/mp-655834,16.334187440719706,2.0862978344407908,-2.1600589125061944,-17.916761588835406
-3.8600386940909086,-84.92085127,4.375023816578796,-0.6891837262026518,0.00021735,1.1904,9,22,599.6263025715099,1579.836,mp-1191200,Li2In2GeSe6,https://materialsproject.org/materials/mp-1191200,-3.8592746652297514,0.8162494595544003,-31.631324834586664,-35.727986786145784
-6.406616196666668,-76.87939436,6.2781705759358815,-2.398452358203126,1.2341069,0.0,8,12,275.1552798771417,1040.30784,mp-1226595,CeTm4S7,https://materialsproject.org/materials/mp-1226595,10.509452232612688,-3.0960024883504653,-4.970269050112897,-16.079555525797687
-4.082989108571429,-114.32369504,4.337020659004045,-1.0878854261309527,8e-07,0.989,62,28,585.3416264544917,1528.8039999999999,mp-1232260,Mg(InS2)2,https://materialsproject.org/materials/mp-1232260,14.31275709138349,10.601022076668636,-7.239348781328498,-16.984670072918867
-4.22058555,-42.2058555,4.1649329004340485,-1.1367578992413792,3.9999998999999997,0.0,186,10,338.58282795842183,849.2271037999999,mp-27179,CsCrBr3,https://materialsproject.org/materials/mp-27179,-0.6976345510838963,12.927481427317744,-26.586807980107608,-68.80373176513118
-3.766369858181818,-82.86013688,5.710294722958058,-0.4713481215262534,0.0,0.0,63,22,523.0753139889566,1798.7618076,mp-28467,Cs2Cu5Se4,https://materialsproject.org/materials/mp-28467,14.536422005339505,22.979417528945078,18.762189779821316,-47.68163825472574
-4.708877334137932,-136.55744269,3.616673945801377,-1.4844440252413786,1.7800000000000002e-05,1.3263,2,29,1009.1102372014597,2197.8542,mp-1211812,K4Zr6FeBr18,https://materialsproject.org/materials/mp-1211812,7.9565570553581635,-0.07591530872668703,-1.8130903570388932,-22.173219433966732
-3.310757851428572,-185.40243968,4.159090465796602,-0.3587514794285716,0.0,0.9068999999999998,14,56,1861.8796442320843,4663.380800000001,mp-15433,K2Ga2Sb3,https://materialsproject.org/materials/mp-15433,11.607053274218064,2.200492593319584,-13.984630636744242,-7.456441335317158
-3.673202524166667,-264.47058174,5.388627944786919,-0.4537771422453704,0.000745675,0.8023000000000002,205,72,2203.494234181455,7150.575999999999,mp-628768,In4SnSe4,https://materialsproject.org/materials/mp-628768,15.56343600399513,12.85801494160839,-9.06761211213849,-14.730048898397934
-4.5019764338888875,-81.03557581,4.9417402558069465,-0.9636998064950508,0.0,1.3973999999999998,132,18,508.47685967881256,1513.2198076,mp-10489,Cs2Ti(CuSe2)2,https://materialsproject.org/materials/mp-10489,-5.472361110698381,-3.6150483360388335,-14.955441242537615,-69.11058633461336
-4.1022898304,-102.55724576,6.451578232409831,-0.7079399215250004,0.0008418,0.0,6,25,600.5418538338881,2333.244,mp-1228217,Ba4Cu11(Te4S)2,https://materialsproject.org/materials/mp-1228217,18.823948892209085,-37.443977210029395,-2.3219227498910877,-21.756206138224435
-3.485432816785714,-97.59211887,5.644499060516343,-0.4174425909449404,2.25e-07,0.2159999999999993,58,28,819.195865837089,2784.6079999999997,mp-19932,In4Se3,https://materialsproject.org/materials/mp-19932,15.891822319847298,2.9022799203142853,-3.6149586159973133,-14.681632479324527
-6.112159161428571,-42.78511413,6.379674448317359,-0.18647743285714166,10.0006008,0.0,12,7,173.45145068352008,666.3883,mp-1078012,Cr3Te4,https://materialsproject.org/materials/mp-1078012,20.55941392914294,9.51698432215593,26.963481018128604,-40.12719855265222
-3.3229306508928573,-186.08411645,6.415775030795125,-0.08110542040922601,0.0005912999999999999,0.0,198,56,1349.7622393926442,5215.036,mp-1200563,Ag7AsSe6,https://materialsproject.org/materials/mp-1200563,29.86865770055641,-3.928506788737381,14.055548284034062,5.3828335997843135
-3.764200609166666,-90.34081462,4.0709598340230295,-0.9685776577812508,0.000343725,1.5211999999999994,15,24,576.5333718056556,1413.42307712,mp-1191034,NaCdSbS3,https://materialsproject.org/materials/mp-1191034,-2.861827983940048,-2.397388421565741,-29.327772283686016,-33.15370244301228
-4.2182953823333325,-126.54886147,3.861318752214224,-1.221738952402299,2.9999998,0.6103000000000001,185,30,970.4934648051061,2256.7278,mp-29314,RbVBr3,https://materialsproject.org/materials/mp-29314,-1.7129146044866934,13.252509705652006,8.12531255324339,-54.21627370835851
-6.11659325375,-48.93274603,4.452127551385046,-1.7171972734374998,0.0,0.9072,5,8,200.44786099497813,537.42756,mp-550070,NbBr2O,https://materialsproject.org/materials/mp-550070,-2.346517364893503,2.2798280835516738,-1.1242807776567023,-20.135226372230285
-4.218281337666666,-126.54844013,3.857048124422687,-1.2217249077356322,2.9999991833333333,0.5946000000000002,165,30,971.5680213645793,2256.7278,mp-568136,RbVBr3,https://materialsproject.org/materials/mp-568136,-1.6545005314284709,13.236960371968227,8.109448668391849,-54.190150151824206
-3.979891422638889,-286.55218243,4.644072248935489,-0.7716130964814821,0.0,1.1714000000000002,205,72,2020.1966719298914,5649.936,mp-646878,In4SnS4,https://materialsproject.org/materials/mp-646878,14.762014455303671,12.620904173264464,-10.237024788613624,-14.76641898602424
-3.635426631470589,-123.60450547,4.773535353422053,-0.07653933949579833,0.0,1.2371000000000003,43,34,762.9445488611897,2193.22924,mp-29576,Cd7P10,https://materialsproject.org/materials/mp-29576,-0.5055316267152309,-3.357047074110336,-14.999793448796716,-31.438910395548266
-6.4465059433333325,-77.35807132,6.198204732742673,-2.4085977965364584,1.2148768,0.0,8,12,276.90998434603273,1033.607,mp-1226714,CeEr4S7,https://materialsproject.org/materials/mp-1226714,10.400470753701695,-3.1463877966130496,-4.943954198643041,-15.973393222831586
-4.221728491,-42.21728491,3.805679887873398,-1.2091632770689649,4.999999900000001,1.182,194,10,331.7149839293928,760.2356900000001,mp-29763,RbMnBr3,https://materialsproject.org/materials/mp-29763,-1.0201315752186648,12.885813463636284,-26.600368207141646,-68.98558447225629
-3.77440436775,-150.97617471,5.679703506342268,-0.5262796877500001,3.75e-08,0.03819999999999979,62,40,1216.9182250784281,4162.344,mp-29938,Ba(GaSb)2,https://materialsproject.org/materials/mp-29938,18.618693866757738,-37.43279957877867,-1.3734316924930536,-31.33733975886809
-4.606870307045455,-202.70229351,4.829314814561321,-0.5963399512460815,4.2925e-05,1.887,163,44,1800.4540262696537,5236.226967600001,mp-1199497,CsMo3I7,https://materialsproject.org/materials/mp-1199497,19.34741963087668,5.915147614584852,-11.597447321694476,-7.464159056667037
-4.4902922875,-35.9223383,3.869580656930143,-0.20038223357142826,3.415e-05,1.4261,122,8,173.74813194016113,404.888048,mp-4666,CdSiP2,https://materialsproject.org/materials/mp-4666,-2.120966509041498,9.12866349324407,-35.103840502523525,-50.87244572099513
-5.5839281125,-44.6714249,6.5181990298129575,-1.9456331703125005,0.0,0.0,129,8,174.28955854242597,684.1477400000001,mp-12515,LaZnSbO,https://materialsproject.org/materials/mp-12515,19.04403326704955,-38.32440237765691,20.16882567453456,-40.529698489824106
-3.99745670125,-63.95930722,4.924522494894587,-0.5262424849479173,4.75e-07,1.3671000000000002,15,16,396.2186871322797,1175.0328,mp-3922,AgSbS2,https://materialsproject.org/materials/mp-3922,-1.4713164075783105,-3.9389559488205017,-14.574639236437285,-68.24452860389783
-4.795359495714286,-67.13503294,5.3637383823296725,-0.31365387491071417,5.00044235,0.5008999999999997,12,14,380.3563161390149,1228.59609,mp-1210700,Mn(SbSe2)2,https://materialsproject.org/materials/mp-1210700,16.50916012731714,2.3801661238684217,-2.12180929036149,-18.03321405564095
-3.199782494642857,-89.59390985,6.48243242069738,-0.1401057401116072,5e-08,0.008099999999999996,31,28,714.275768998362,2788.3984,mp-1229209,Ag6HgGeSe6,https://materialsproject.org/materials/mp-1229209,14.825091801222927,-14.065945139060547,-10.423342826817377,-16.100936085316484
-2.925050336785714,-163.80281886,1.2874030816427238,1.0134493489285714,5.0911186,0.2945,227,56,2010.7076322637802,1558.8860844,mp-1215157,Al27V,https://materialsproject.org/materials/mp-1215157,14.001184427963755,22.51960702370329,-30.440269246106638,-36.86446638638535
-2.4511592427777784,-44.12086637,6.087599877881472,-0.5731443611182954,1.0199999999999999e-05,1.0798,72,18,593.8539003484152,2177.0912,mp-1105496,Rb2Hg3Se4,https://materialsproject.org/materials/mp-1105496,-3.3146123506834084,1.417775963929357,-20.414772537095764,-52.044496096960856
-6.45384178,-77.44610136,6.093035983164689,-2.4123834365364587,1.1127642,0.0,12,12,279.151038006374,1024.2922800000001,mp-1226677,CeHo4S7,https://materialsproject.org/materials/mp-1226677,10.406272519797064,-3.2020549137112413,-4.954847230887737,-15.910505093429688
-6.075684824285713,-42.52979377,6.433752666856879,-0.2296457414285708,8.999477800000001,0.0,12,7,171.72133289627814,665.3336999999998,mp-1025344,V(CrTe2)2,https://materialsproject.org/materials/mp-1025344,20.50778907668939,9.616509252957137,26.948765310746197,-40.16464408158925
-3.6061311669230767,-46.87970517,5.623785258840394,-0.009579330384615704,0.0,0.34030000000000005,8,13,411.8177347488858,1394.71247,mp-541032,Te7As5I,https://materialsproject.org/materials/mp-541032,10.797483736992119,8.485528673201518,-1.9361242920679151,-15.024162771328454
-5.676478643818181,-312.20632541,5.81986271302196,-0.2884612116551724,59.67933789999999,0.0,2,55,1534.9008015917966,5379.5254,mp-1219934,Rb3(Cr5Te8)4,https://materialsproject.org/materials/mp-1219934,20.46854659486288,9.843018519505224,27.23574613409409,-40.590467486569565
-6.503190303333334,-78.03828364,5.8361089674037405,-2.1838607523697924,4.999967400000001,0.5289999999999999,8,12,264.4387627692853,929.3930449999999,mp-1225337,Dy4MnS7,https://materialsproject.org/materials/mp-1225337,11.490604649327555,-2.325543806101017,-5.6889541971881705,-17.226565677240995
-3.3248942925,-53.19830868,4.987957391947987,-0.4154009158149998,0.0,0.5969000000000002,14,16,471.66502935925087,1416.7959999999996,mp-30971,CuTe2Cl,https://materialsproject.org/materials/mp-30971,11.356793694097973,2.379547777475074,-32.35506756198859,-35.37377511879836
-5.768944061749999,-230.75776247,5.724674706871058,-0.2443177245086204,43.1065159,0.0,2,40,1139.3277379580506,3927.8093,mp-1219831,Rb(Cr5Te8)3,https://materialsproject.org/materials/mp-1219831,20.461330765900726,9.861241702469432,27.257248457995235,-40.69310128385776
-3.5324491015909087,-155.42776047,4.578449314058515,-1.278798412092477,0.0,1.9139,201,44,1368.9273580383424,3774.41564,mp-623862,Rb3Tm2Cu4Br13,https://materialsproject.org/materials/mp-623862,-3.175164624398397,0.9738256017847668,-21.4254906155875,-76.20898802730503
-4.068607773571428,-56.96050883,4.537911408822539,-1.0421770575266838,0.0,1.2816999999999998,12,14,352.5752002149234,963.5154518999999,mp-22007,CsIn5S8,https://materialsproject.org/materials/mp-22007,-0.32879694387854336,-3.0777647574969693,-29.49485385033369,-36.626526177295844
-6.022198065,-168.62154582,6.5087153389555725,-2.519150294464286,0.0,1.4663999999999997,62,28,648.8534565434783,2543.272,mp-865865,Yb(ErS2)2,https://materialsproject.org/materials/mp-865865,10.209430041607996,-3.13184227167956,-5.08561885030878,-16.028041681834154
-3.715612419375,-59.44979871,4.218188881239243,-0.6848930412580825,3.5025e-05,1.7788,2,16,574.9786880970369,1460.5911999999996,mp-1189259,RbSbSe2,https://materialsproject.org/materials/mp-1189259,-1.3319985707864086,-1.5834729684418682,-31.74180734403183,-31.27671049932097
-5.1730820871428564,-144.84629844,4.3684638097400095,-0.7057083951785715,5.000008425,0.0,62,28,648.8156969185449,1706.8721799999996,mp-5807,Mn(SbS2)2,https://materialsproject.org/materials/mp-5807,-0.2564553151154052,-2.9899009451525353,-18.69580153722336,-33.78333280484745
-4.82935286875,-154.5392918,2.9156908610499808,-1.217944922905,2.5e-08,3.1435000000000004,2,32,687.2910037689998,1206.793728,mp-24215,ScH3Br3N,https://materialsproject.org/materials/mp-24215,-1.8336725565180176,13.270008634677115,-31.366197094300706,-39.33427472688301
-6.372665749166668,-76.47198899,6.582738534781535,-2.4486669386197923,1.7199999999999998e-05,0.0,12,12,267.58115598441543,1060.75,mp-1095508,Er5S7,https://materialsproject.org/materials/mp-1095508,11.30215605511112,-2.8179315851040734,-5.105391313146921,-16.78916804906207
-2.86935739625,-22.95485917,7.416664620409546,-0.09997961374999996,0.0,0.0,51,8,259.29986494111273,1158.142078,mp-27527,Te2AuI,https://materialsproject.org/materials/mp-27527,8.375104261760335,1.3072679975815802,-2.9494569221063704,-20.423275803940864
-3.213526818,-32.13526818,4.753676672794085,-0.30696095806896506,9.03e-05,0.0,21,10,258.31591811413693,739.4889999999999,mp-1219647,Rb2Zn3GeAs4,https://materialsproject.org/materials/mp-1219647,15.830706721873007,22.84048281873176,23.257038312143816,-47.29171802463229
-3.6553728635000002,-73.10745727,3.133901832599786,-1.64318983235,0.0,3.3731,163,20,628.7877518361868,1186.69843968,mp-29417,Na3ScBr6,https://materialsproject.org/materials/mp-29417,1.5388682541047418,-0.0952738927970184,-19.09320444858569,-15.839112316459836