energy_per_atom,energy,density,formation_energy_per_atom,total_magnetization,band_gap,sgr,num_sites,cell_volume,weight,mp_id,formula,URL,tsne_cry_0,tsne_cry_1,tsne_xrd_0,tsne_xrd_1
-2.061008065,-4.12201613,8.610232784326895,-0.010257865833332769,0.0,0.0,65,2,33.41762790265624,173.2772,mp-1215437,ZnAg,https://materialsproject.org/materials/mp-1215437,65.42124423222049,36.21929360379149,62.63483147766874,61.206741026298275
-6.106373376666667,-18.31912013,11.414464461333564,-1.2189222466666674,0.0,0.3690000000000007,216,3,70.66942870765891,485.77820999999994,mp-16314,TmSbPt,https://materialsproject.org/materials/mp-16314,87.77038781988806,2.4675246152633643,65.78133029817087,47.95118344424458
-6.170397755,-24.68159102,9.287622660242107,-0.6046955804166672,7.6e-05,0.0,225,4,67.836169059355,379.417,mp-865679,TiSnPd2,https://materialsproject.org/materials/mp-865679,95.71996252026787,8.437717391033647,62.69375714531498,65.10148363133383
-3.6380262889,-363.80262889,2.5359412867439253,0.11007689110000002,0.000131715,0.0,1,100,1766.7561326742637,2698.1538600000003,mp-1245307,Al,https://materialsproject.org/materials/mp-1245307,58.253127535108746,46.87491719926518,72.85454775692423,8.880422302201051
-5.022317023181818,-110.49097451,4.6771761361278665,-1.361066954318182,5.0000003,0.0,12,22,225.43846093862945,634.9838,mp-1177306,Li4Ni5SbO12,https://materialsproject.org/materials/mp-1177306,9.889314858901328,73.78692776174304,18.849147884326875,82.72893929461536
-9.141612443333333,-219.39869864,7.684316123017081,-0.186272283333332,1.4331823125,0.0,194,24,347.6531106181523,1608.8007200000004,mp-1015,ZrMn2,https://materialsproject.org/materials/mp-1015,68.8352427217284,45.67157221735525,77.12563043961308,24.203091035524526
-9.141899048333334,-54.85139429,7.670873042444217,-0.1865588883333326,1.5869977,0.0,227,6,87.06559176375313,402.2001800000001,mp-2116,ZrMn2,https://materialsproject.org/materials/mp-2116,68.88573467196045,45.66216454919354,77.50519292673874,24.606203413573947
-5.372437523333333,-16.11731257,3.9343195043190664,-0.4304493815972232,4.57e-05,0.0,191,3,47.270027423730475,111.997,mp-1008676,TiS2,https://materialsproject.org/materials/mp-1008676,58.62542596006154,48.51707037472701,82.3427725399567,20.227622750227805
-4.912618815,-19.65047526,18.82277338429381,0.6535617081250003,0.13454059999999998,0.0,139,4,68.55610482438769,777.106707,mp-974584,ReAu3,https://materialsproject.org/materials/mp-974584,69.1021687446001,56.737616260830926,56.3368864307281,41.30774453753885
-4.318942915,-17.27577166,8.054665084506883,-0.14951580416666754,2.2800000000000002e-05,0.0,225,4,69.60885640265018,337.647,mp-672340,LiIn2Ru,https://materialsproject.org/materials/mp-672340,89.47618862805672,2.8468026744273365,57.42500663915526,67.6390289151447
-9.140299380833332,-109.68359257,7.68476523842922,-0.18495922083333247,1.3584656000000002,0.0,194,12,173.81639648410152,804.4003600000002,mp-1014,ZrMn2,https://materialsproject.org/materials/mp-1014,68.82413838211752,45.68035231875235,77.06788009109056,24.192096780532843
-6.871385306875,-219.88432982,2.303998219113503,-0.1726499615104169,0.0,2.5478,74,32,247.2149586820372,343.0108,mp-655591,LiB13C2,https://materialsproject.org/materials/mp-655591,5.644803624942044,58.10852300932945,0.7430900082537975,54.31671044886746
-4.531323290769231,-58.90720278,3.857811771444183,-0.07464142307692337,0.0,0.0,204,13,218.49699402333817,507.61846320000006,mp-11227,Al12W,https://materialsproject.org/materials/mp-11227,38.18964727569483,39.20581732745076,13.254620229631733,-8.478901131735707
-2.99696671,-5.99393342,10.494758989499466,-0.4061695699999999,3.26e-05,0.0,166,2,32.263387774295374,203.907569,mp-1222403,LiAu,https://materialsproject.org/materials/mp-1222403,49.80014332343645,17.797095182963982,48.484998904659,-0.8831177812963129
-4.518814076666667,-13.55644223,6.2097589207767605,-0.3992878450000005,4e-07,0.0,139,3,67.63228947802467,252.918,mp-1063133,CaPd2,https://materialsproject.org/materials/mp-1063133,22.79049834532104,5.656852948296173,56.82460971283512,32.212823792351664
-8.25851939875,-132.13631038,7.383216907610631,-0.15573650993999874,7.0475e-05,0.0,33,16,167.20230050914742,743.42778,mp-1247541,MnRhN2,https://materialsproject.org/materials/mp-1247541,24.58950290891284,52.38629508676533,50.747431118532475,-3.153337317122051
-2.2341463425,-8.93658537,1.8501921605967229,1.0760231969375005,0.9993281999999999,0.0,225,4,72.67918832520441,80.98000784,mp-977200,Na3C,https://materialsproject.org/materials/mp-977200,97.47118371360209,0.4664674320999946,73.5856059534527,54.571130694675006
-4.51491068,-22.5745534,12.289196695141046,-0.2866883437240005,0.0004246,0.0,221,5,70.89184818311756,524.6512399999998,mp-1068746,TlHPd3,https://materialsproject.org/materials/mp-1068746,50.74038651775437,30.653123750240752,55.52073891166149,36.23033826897407
-5.962469140625,-95.39950625,3.884464208871397,-1.9909705569950005,8.0000195,0.0,10,16,141.71438128213146,331.5094850000001,mp-1174355,Li5Mn2CoO8,https://materialsproject.org/materials/mp-1174355,2.628890794761765,92.1977557407358,-4.061047222595288,94.0236952049191
-5.7733519365625,-184.74726197,4.253631356806384,-1.838002973185,17.999999600000002,0.1816,2,32,282.24640498961344,723.001465,mp-1175655,Li9Mn2Co5O16,https://materialsproject.org/materials/mp-1175655,18.561753628465024,90.70874109742412,9.552031277024069,89.83310529103392
-6.734182721000002,-67.34182721,4.181664489115255,-2.381786792442,3.00000005,1.9195,148,10,101.05500112248781,254.48249,mp-770618,MgMnO3,https://materialsproject.org/materials/mp-770618,-11.307337987359032,69.62339786691453,-21.122519031447872,71.60687088360406
-5.7883011246875,-185.22563599,4.217177686376371,-1.8529521613099995,19.9999995,0.4668999999999999,2,32,284.6861687825372,723.001465,mp-1175386,Li9Mn2Co5O16,https://materialsproject.org/materials/mp-1175386,17.45690843765382,89.96526595187899,8.02385847979749,91.05120129466559
-5.508284000625,-176.26508802,4.261291824263036,-1.7130853353125,23.999999300000002,0.0,2,32,284.85267232570527,730.991765,mp-1175507,Li9Co7O16,https://materialsproject.org/materials/mp-1175507,10.798764651070263,87.13831030904123,7.809977606255394,95.49141150555323
-8.867157709999997,-44.33578855,8.131164697299054,-0.5350676266666653,7.0272953,0.0,139,5,60.599643421983814,296.7383900000001,mp-610530,Gd(CoB)2,https://materialsproject.org/materials/mp-610530,55.76394486511274,25.3392775992805,48.902652218099156,-1.8095016266367523
-6.2289189108333325,-149.49405386,4.027775242331411,-2.0946530099516667,14.0000068,0.7261000000000002,1,24,214.07850322373667,519.265175,mp-1175187,Li7Mn4CoO12,https://materialsproject.org/materials/mp-1175187,15.28102640143508,88.85560145112508,7.816889445712294,93.14134535558685
-5.7913758871875,-185.32402839,4.238368987197649,-1.8560269238099991,15.9999997,0.16639999999999988,1,32,283.262774486158,723.001465,mp-1175978,Li9Mn2Co5O16,https://materialsproject.org/materials/mp-1175978,18.485828325921155,88.5142478064918,10.509555215469732,90.72756976255044
-6.153048896666667,-18.45914669,10.99781579521311,-1.2231758900000005,0.0,0.4923000000000002,216,3,72.3752279917447,479.344,mp-16327,DySbPt,https://materialsproject.org/materials/mp-16327,87.08819554006584,-1.8470487791510997,67.0001774047564,47.1531339602489
-5.525929392,-55.25929392,2.8086772442946133,-0.09626744908333293,0.0,0.6052999999999997,194,10,122.69691633161871,207.53263160000003,mp-1228446,Al3BC,https://materialsproject.org/materials/mp-1228446,30.344262906397404,52.423740449591065,60.4350693184792,-5.531853005509936
-5.6844640375,-22.73785615,8.074261593269561,0.39103648625,1.18e-05,0.0,139,4,66.37926514352141,322.7648,mp-972202,TcAs3,https://materialsproject.org/materials/mp-972202,65.06876811410574,37.87040197994064,73.82961207386593,7.090074463083885
-3.6242514475,-14.49700579,12.460415410513251,0.011460957500000646,2e-07,0.0,221,4,69.12311038813644,518.6886,mp-12065,Ag3Pt,https://materialsproject.org/materials/mp-12065,63.63754294779989,53.98441637773973,56.11989977962652,37.1339563748053
-2.48308512375,-19.86468099,7.694504546207965,-0.01156876937499973,2.2e-06,0.0,225,8,119.51536274318356,553.8030000000001,mp-644500,Zn7Mo,https://materialsproject.org/materials/mp-644500,59.79506560694075,56.21307580535349,85.510621104537,15.185388390651365
-7.443455010588236,-1012.30988144,3.62387738360416,-3.415086098676471,0.0,5.4595,14,136,1212.9875142591534,2647.1633088000003,mp-560974,BeAl6O10,https://materialsproject.org/materials/mp-560974,4.719585391348644,62.09532254906146,7.543281730761022,51.204795566142785
-5.364842225714286,-150.21558232,16.209954840092713,-0.9251529828571432,0.00013969999999999998,0.0,136,28,536.9786409716297,5241.912,mp-1207622,Yb5Pt9,https://materialsproject.org/materials/mp-1207622,58.77032801629012,42.50827079399496,72.81706266006974,12.717566036701063
-5.792918975,-185.3734072,4.234950368241657,-1.8575700116224996,22.0000003,0.5453000000000001,2,32,283.49143536909236,723.001465,mp-1175406,Li9Mn2Co5O16,https://materialsproject.org/materials/mp-1175406,14.080727633402507,88.9715416161763,6.763566910318147,92.1189914912637
-10.44315664,-20.88631328,11.85552485256301,-0.01477990333333423,0.005562,0.0,65,2,32.45394228650284,231.707,mp-1216621,TiW,https://materialsproject.org/materials/mp-1216621,67.09157509154849,27.915158492563343,61.907383701805784,24.632338547378048
-6.145419266666668,-18.4362578,11.149206521275568,-1.224673631666667,0.0,0.4584000000000002,216,3,71.75443968167923,481.77432000000005,mp-16376,HoSbPt,https://materialsproject.org/materials/mp-16376,87.12278609668911,-1.548569141705267,66.49138815198145,47.483964402292976
-8.55847130625,-205.40331135,11.12651566088118,-0.5199830737499992,2.235e-05,0.0,194,24,359.633055984618,2409.7372800000003,mp-1191559,NbRh3,https://materialsproject.org/materials/mp-1191559,65.52653358141971,62.85188431351462,89.66269364005608,16.20004061148335
-3.0277322375,-12.11092895,5.488090779289595,0.002936412499999985,2.4e-06,0.0,63,4,84.38472914685045,278.892,mp-1067880,Ga,https://materialsproject.org/materials/mp-1067880,23.69353330878723,23.00609312154181,63.09630982845263,-11.212825351626883
-5.8011418628125,-185.63653961,4.2482865598055355,-1.8657928994349997,15.999999599999999,0.4005999999999999,1,32,282.60150103072374,723.001465,mp-1175609,Li9Mn2Co5O16,https://materialsproject.org/materials/mp-1175609,18.886636846843537,88.8668482576971,10.551005327867854,90.48396187554042
-6.37288856325,-254.91554253,4.270778497446918,-2.3578751815000003,3.00097875,0.0,12,40,391.1320044305977,1005.961386,mvc-11911,Al5(NiO4)3,https://materialsproject.org/materials/mvc-11911,1.4835800261421055,65.14423544592904,10.30555896571985,52.696889264440095
-5.138096966666667,-30.828581800000002,9.942647510873027,-0.37223505500000026,5.3700000000000004e-05,0.0,216,6,85.9181300296479,514.4436,mp-1072598,ErCdNi4,https://materialsproject.org/materials/mp-1072598,70.66304972034307,47.8744460585228,73.55580076963203,23.80705498698903
-4.5388345260000005,-22.69417263,5.026562683175253,-2.76152633295538,0.0,5.5947,221,5,65.71141414285714,198.9128435,mp-1017555,CsBeF3,https://materialsproject.org/materials/mp-1017555,45.65389463912033,36.81118527759229,14.01007214417698,-12.53888146051982
-8.441771128000001,-42.20885564,6.7345935624751005,-0.17508368095199955,1.0627302,0.0,12,5,48.530286106828534,196.822685,mp-1245700,Mn2CoN2,https://materialsproject.org/materials/mp-1245700,25.109165196255585,53.87876376776208,70.39941764970898,8.086647164911755
-5.753042371666666,-34.51825423,2.6364002194272285,-0.0055751383055545976,0.0,0.7943999999999996,194,6,57.7087899315436,91.62293856,mp-1238775,NaBC,https://materialsproject.org/materials/mp-1238775,32.59609865124177,52.649551985170405,85.87814090693983,17.687410746525227
-6.867460556499998,-137.34921113,6.6393453041673585,0.04863964554800049,0.02411235,0.0,59,20,202.75520280720298,810.6776,mp-1246672,FeNi5N4,https://materialsproject.org/materials/mp-1246672,25.6407535796436,53.47422738795543,60.902136576714504,7.198774504801428
-6.335908687000001,-63.35908687,2.6787139610932207,-1.2626606489519994,5e-08,2.4121,140,10,106.76659782149105,172.231528,mp-11918,Ca(BeN)2,https://materialsproject.org/materials/mp-11918,32.361122911630844,51.473981685328035,26.839643120609768,-38.261073868254364
-6.1565873522727275,-135.44492175,4.0830734073161,-1.7719939944927268,6.99999885,0.2349000000000001,64,22,230.43010828715674,566.6009799999998,mp-755903,Li2Mn2CuO6,https://materialsproject.org/materials/mp-755903,10.57401026219897,73.22638091282376,12.816179048438633,73.07760829288107
-4.30084727,-12.90254181,4.18157375663414,0.16254139104000012,6e-07,0.0,38,3,39.92628257544522,100.54246928,mp-1246274,NaCuN,https://materialsproject.org/materials/mp-1246274,35.21285720494585,41.70651112069903,18.199509295864672,31.459077302880548
-4.2959547584375,-274.94110454,9.009090278441457,-0.5627337478125005,0.0007672375,0.0,206,64,1131.1547155451165,6136.968000000001,mp-1211411,Li3Sn3Pt2,https://materialsproject.org/materials/mp-1211411,30.622880258692952,15.642189784174738,57.36219721770785,-9.252148779230255
-9.18862861,-18.37725722,12.924856929967484,0.4012220856249993,1e-07,0.0,221,2,24.474843413073177,190.5007,mp-1001918,HfC,https://materialsproject.org/materials/mp-1001918,85.22198143116769,33.24626973866122,53.67193184116146,48.06320751778885
-11.356334106666667,-34.06900232,12.32028035541538,-0.044631323333334194,1.5e-06,0.0,42,3,50.23102281875062,372.68638,mp-1220335,NbMoW,https://materialsproject.org/materials/mp-1220335,67.02804042017053,27.352776318834515,63.1597460165671,61.87076022973152
-7.224793128333333,-86.69751754,3.9706005788395786,-1.9211494452400002,9.9999999,0.5167000000000002,166,12,143.75953214536625,343.750835,mp-756398,Mn3VO8,https://materialsproject.org/materials/mp-756398,7.311824318419492,70.1292151148381,14.867355422808163,83.05440141033259
-5.596228697857144,-156.69440354,3.766806198150936,-1.597694605357142,13.7713339,0.0,8,28,283.00311379519474,641.9709849999998,mp-755973,Li6Fe3Co3O16,https://materialsproject.org/materials/mp-755973,0.2330716118167091,76.39340524759352,-7.326553485885718,92.51482203393034
-5.9404002425,-23.76160097,11.63833419369294,-0.9149409812500008,8e-07,0.0,221,4,69.41575828262168,486.519,mp-2825,ErPd3,https://materialsproject.org/materials/mp-2825,52.01402678395849,31.1522622440584,55.680465638266156,38.08750182520573
-6.7748663899,-677.48663899,2.2832280773734386,-2.7969085392750004,0.0,4.2229,1,100,909.5172920906642,1250.5791,mp-1245060,BeO,https://materialsproject.org/materials/mp-1245060,-35.040900757246824,43.758658968878066,-1.4944432752279606,55.83905664954223
-9.63826956,-77.10615648,5.965089783063805,-0.8041804477824996,2.2e-06,0.0,141,8,71.208855241247,255.8008,mp-676416,V2CN,https://materialsproject.org/materials/mp-676416,29.33811104948227,60.46747704374454,56.37454055959538,44.186545007539856
-5.562913300000001,-16.6887399,8.309967634728924,-0.5162581816666675,1.1e-06,0.0,139,3,70.68761383357875,353.74765,mp-1062974,PrPd2,https://materialsproject.org/materials/mp-1062974,25.56717124519373,6.618946957933086,55.60132538086336,32.966046851029404
-11.172190795,-44.68876318,14.266980153719542,-0.0302738566666676,0.0014334,0.0,225,4,69.08964241986196,593.60276,mp-1187209,Ta2TiW,https://materialsproject.org/materials/mp-1187209,94.16785119516399,8.241846108080013,58.70219074525143,66.98435423359005
-5.073684335,-20.29473734,3.83039045698014,0.30810777500000075,3.36338615,0.0,51,4,68.70640022151612,158.48609,mp-1185893,MgMn,https://materialsproject.org/materials/mp-1185893,47.9059381742701,34.92076088831395,52.00684245125783,34.29078868926484
-8.75516127,-70.04129016,8.7022581388586,-0.8079313300000006,1.45e-06,0.0,62,8,148.1728573994984,776.518,mp-669917,ZrRh,https://materialsproject.org/materials/mp-669917,63.795661607022474,33.07303031291122,59.77712406204081,8.499279228701479
-9.4467495785,-377.86998314,6.3873254329238724,-0.4837383874519986,1.8746149375,0.0,206,40,382.6853783919415,1472.0135999999998,mp-1014318,Cr3N2,https://materialsproject.org/materials/mp-1014318,30.430791892743212,55.62045173065624,70.10607230538254,0.0703094396864129
-5.471397929999998,-16.41419379,9.205392751093404,0.0486744400000004,4.680696299999999,0.0,216,3,67.40447650534304,373.664614,mp-5944,MnSbAu,https://materialsproject.org/materials/mp-5944,86.27311564968487,2.4495094229439256,57.71853923009258,69.91552797320384
-4.2329300575,-33.86344046,5.516542450930216,0.31183015603499964,0.45919705,0.0,223,8,35.4403051252689,117.73763999999998,mp-1080476,FeH3,https://materialsproject.org/materials/mp-1080476,33.36305273500649,51.219592490469296,68.60861330370307,60.704536396003505
-6.2663581475,-25.06543259,3.485223858552319,-2.8815243755,0.0,4.7338000000000005,166,4,39.054755095212286,81.97010788,mp-7748,NaAlO2,https://materialsproject.org/materials/mp-7748,20.1279470883093,56.74154812142326,12.48153221843936,68.54578148710866
-8.375994858333334,-50.25596915,10.58467518390225,-0.2355021150000004,1.8837909,0.0,216,6,79.68081229460947,507.90466,mp-1215205,ZrTaCo4,https://materialsproject.org/materials/mp-1215205,69.64318615875122,49.829418697787744,73.61885872224127,22.1202766864366
-5.293672795,-211.74691180000002,2.6897783522467256,-3.494140601714,0.0,7.915100000000002,33,40,399.53752126473853,647.1798312000001,mp-556020,Li3AlF6,https://materialsproject.org/materials/mp-556020,-30.369294492506803,66.1769705146759,-26.743672378678035,71.9540670677917
-7.695460530625,-123.12736849,14.814195779765289,-0.9485197106249998,7e-07,0.0,72,16,250.86452004609325,2238.042000000001,mp-30851,Ti3Pt5,https://materialsproject.org/materials/mp-30851,55.30083796725764,41.16760226139768,72.55757677643356,13.739432282703891
-5.3738773475,-21.49550939,13.252641941628267,-0.33906510874999984,1.3e-06,0.0,187,4,90.3288980217371,720.9084,mp-1227296,BiSbPt2,https://materialsproject.org/materials/mp-1227296,48.201555925665254,20.141790604510387,74.44568614165831,16.298275314635106
-2.9192274153846154,-37.9499564,1.9749043456139348,-0.11584887769230735,0.5296674,0.0,221,13,263.7845677958511,313.723,mp-1104791,Li(Mg2Si)4,https://materialsproject.org/materials/mp-1104791,92.34984705650265,9.514773224815515,57.48248848760675,66.11051617961327
-9.8887602475,-118.66512297,12.76817624045016,-0.11302579083333343,3.22836845,0.0,164,12,152.9859407359811,1176.33576,mp-1217935,TaFe4W,https://materialsproject.org/materials/mp-1217935,69.53886029869606,50.21288160922693,72.2547716933651,18.805166578904526
-5.7737650246875,-184.76048079,4.2432324173132665,-1.8384160613099996,18.0000003,0.2784,2,32,282.9381095673928,723.001465,mp-1175695,Li9Mn2Co5O16,https://materialsproject.org/materials/mp-1175695,18.63072303393764,90.7554066446297,9.712902943754775,89.59084220799538
-5.138481257727271,-113.04658767,14.778786001668761,-0.43368577,0.0,0.0,12,22,401.06255803520554,3569.454,mp-571060,In9Pt13,https://materialsproject.org/materials/mp-571060,63.22480801056528,22.006339473135935,60.636692524672355,7.7696306413385
-4.8324630803030315,-318.9425633,4.913961537918108,-1.072882753712121,6.333064533333333,0.12440000000000008,1,66,642.0951248212958,1900.1244,mp-1177736,Li3Cu2Ni5O12,https://materialsproject.org/materials/mp-1177736,19.512939922067144,53.48936110526394,27.31294698555193,75.91633375307394
-3.75748141,-7.51496282,6.037780112691723,0.08177378749999997,3e-07,0.0,25,2,39.780846725487145,144.6446,mp-1059094,GaAs,https://materialsproject.org/materials/mp-1059094,34.609483462602,27.08992415612677,68.5966080189289,9.602859785522924
-8.4322103225,-33.72884129,4.7044144995661705,-1.5446665953566665,3.4e-06,0.0,166,4,36.30765630688671,102.86193859999999,mp-1217025,TiAlN2,https://materialsproject.org/materials/mp-1217025,29.32228387804322,60.448884754255225,56.35491780704852,44.43147182418671