energy_per_atom,energy,density,formation_energy_per_atom,total_magnetization,band_gap,sgr,num_sites,cell_volume,weight,mp_id,formula,URL,tsne_cry_0,tsne_cry_1,tsne_xrd_0,tsne_xrd_1
-5.8113918659375,-185.96453971,4.28195806134588,-1.8760429025599992,14.000001199999998,0.6214000000000004,2,32,280.37924272250734,723.001465,mp-1175432,Li9Mn2Co5O16,https://materialsproject.org/materials/mp-1175432,19.036124275008934,88.85433739042787,10.689777060390108,91.02620353357828
-3.7103176625,-14.84127065,8.596298342161727,0.14975532250000034,3e-07,0.0,221,4,61.473741601042484,318.238,mp-1183984,Cu3Te,https://materialsproject.org/materials/mp-1183984,58.902073279332456,55.73919613518527,81.54413981415031,14.343833289192714
-5.969262365322582,-370.09426665,4.620148985158617,-1.6630544261021507,7.99264775,0.14959999999999996,26,62,600.2804284807983,1670.17152,mp-774904,Li4Ti(Co4O9)2,https://materialsproject.org/materials/mp-774904,0.9225422288307604,72.9511062373563,0.5322961593609007,57.357771701118814
-9.116787869166666,-109.40145443,10.06590550384567,-0.38674932416666746,8.85e-06,0.0,51,12,193.8146177380091,1174.8712799999996,mp-1102348,NbRh,https://materialsproject.org/materials/mp-1102348,67.72813956202144,59.74580165645722,88.12802924422144,18.746078628137145
-6.421673147692308,-83.48175092,4.073791310601028,-1.670230994836922,8.0000013,0.11800000000000033,12,13,146.10709538852146,358.443735,mp-757424,LiMn3NiO8,https://materialsproject.org/materials/mp-757424,10.027241673696109,75.86693684917415,21.04613237236816,83.91116303994892
-3.01638368,-6.03276736,6.079401286576843,0.014284969999999841,1.5e-06,0.0,63,2,38.088541298155214,139.446,mp-10021,Ga,https://materialsproject.org/materials/mp-10021,34.638200876471444,27.085611832273322,53.29351649441516,47.28784032105311
-5.420783062000001,-27.10391531,18.355055334338868,-0.009585227333333534,4.2999999999999995e-06,0.0,166,5,80.35376209586852,888.2042,mp-1229032,AgPt4,https://materialsproject.org/materials/mp-1229032,63.3973826723119,59.03263717992481,82.93841532626126,16.934735707083878
-3.869756118333333,-46.43707342,2.7041904870783195,0.28190031166666724,8.1e-06,0.0,12,12,197.66882610022236,321.904,mp-1073586,MgSi2,https://materialsproject.org/materials/mp-1073586,67.80082368503194,59.40522736348974,83.32298774153543,18.0082111218922
-5.4972819125,-21.98912765,4.701613491634865,-1.5980825693750005,3.7731201000000003,0.0,123,4,34.567267055955284,97.87299499999999,mp-1222334,LiCoO2,https://materialsproject.org/materials/mp-1222334,-10.94732822184714,73.13385386423946,-7.022748343404823,64.93847821209827
-4.95329655,-39.6263724,10.335560841962122,-0.1839257625000004,0.0035683,0.0,225,8,120.79922638210863,751.8810000000002,mp-1079855,LiPd7,https://materialsproject.org/materials/mp-1079855,58.84009568264035,56.39418346287599,83.09204765923663,13.757023913715631
-8.734507636666667,-104.81409164,5.97110886548184,-0.33221060952333303,0.95582205,0.0,36,12,114.41197391147678,411.4124000000001,mp-1245504,CrFe2N3,https://materialsproject.org/materials/mp-1245504,22.136106437302494,52.18219140759248,44.8705443568478,36.98568313911023
-9.566608519166666,-114.79930223,11.626529755732324,-0.2183895791666662,2.5e-08,0.0,38,12,166.1449287609585,1163.2903,mp-1217850,TaVCo,https://materialsproject.org/materials/mp-1217850,70.92171178433706,49.87595174822861,71.27842044412334,20.956840326911532
-4.49945852,-13.49837556,9.938582405213324,-0.5377512666666671,9.9e-06,0.0,139,3,64.47285725769925,385.88,mp-1063517,YbPd2,https://materialsproject.org/materials/mp-1063517,24.658989206032945,7.0358276766137715,57.592105251195896,32.6685613908035
-6.4300091445000005,-128.60018289,4.1579432648236265,-1.7744080347500009,11.000001199999998,0.23049999999999995,2,20,215.1232859286416,538.662685,mp-753037,Li2Cr3(CoO4)3,https://materialsproject.org/materials/mp-753037,10.242988547600923,76.00035995537785,21.078043721327816,83.80746829202288
-5.809126255,-23.23650502,6.54781139560951,1.0040250467499998,1.11e-05,0.0,216,4,66.74397721482795,263.1838,mp-631318,KSiTc2,https://materialsproject.org/materials/mp-631318,94.13652307123165,9.782882584933354,60.88442107851426,66.36694020070095
-4.85542897,-38.84343176,4.638660507652496,-1.3616640918750005,1.00000015,0.3414000000000001,36,8,69.90110180845053,195.2664,mp-1176588,LiNiO2,https://materialsproject.org/materials/mp-1176588,8.794046434917064,74.62868675545337,17.7608656753521,89.06116229858141
-7.013794782407408,-378.74491825,2.5420992342205717,-0.6077250115277774,3.9166666666666676e-06,2.4612000000000007,11,54,401.67825044078387,614.9244,mp-530033,B8O,https://materialsproject.org/materials/mp-530033,5.907902787538758,57.537055298357174,0.2089568517871603,54.41333898739607
-4.4078739915384615,-57.30236189,3.1956652193275934,-0.11252159000000006,0.0,0.0,204,13,218.09509010429196,419.7184632,mp-550,Al12Mo,https://materialsproject.org/materials/mp-550,54.83682184180731,49.76566406493242,78.26957611415061,6.2654001980260015
-5.835852918571428,-163.40388172,4.206185881405985,-1.8953397237292864,7.99999985,0.6669999999999998,1,28,246.79133512365917,625.12847,mp-1174583,Li4MnCo2O7,https://materialsproject.org/materials/mp-1174583,11.087495240138187,85.94052746174823,9.21231212879026,96.05244859300308
-7.7093724075,-30.83748963,9.598865805083475,-0.6160347037500005,1e-07,0.0,221,4,61.18294175817547,353.672412,mp-635,ScRh3,https://materialsproject.org/materials/mp-635,58.94830896547439,56.290671148936866,82.01025978169523,13.804792010183293
-4.3772810875,-17.50912435,10.832088144653882,-0.2649910362500005,4.6e-06,0.0,139,4,66.17436438509925,431.671,mp-865985,CdPd3,https://materialsproject.org/materials/mp-865985,68.08590781923182,58.99003167464213,57.9769634555205,41.44787663592815
-8.25403271,-16.50806542,16.187125405214168,-0.04637983000000112,3.39e-05,0.0,166,2,30.06571036032082,293.084,mp-1217413,TcPt,https://materialsproject.org/materials/mp-1217413,61.941963907717884,61.07024376794464,84.56563560581252,13.624072360210304
-8.849307819,-88.49307819,6.914953099960058,-0.31265306595200004,5.6433865,0.0,59,10,93.04580360533402,387.46898,mp-1247361,Mn2FeN2,https://materialsproject.org/materials/mp-1247361,30.53221039603601,56.893084221930025,84.83504097004509,18.490639824236464
-6.822326975,-81.8679237,10.663262375911398,-0.5409038208333344,4.7e-06,0.0,139,12,192.29213020757692,1234.81676,mp-1215244,ZrNb2Pd9,https://materialsproject.org/materials/mp-1215244,67.53143722511224,60.177050371758824,87.9799074944446,18.668449622099054
-2.6399112625,-10.55964505,5.439873487956338,-0.29079196,8.7e-06,0.0,216,4,72.21321094915892,236.5682,mp-30344,Li2InAg,https://materialsproject.org/materials/mp-30344,85.73058859499817,-0.02804019038715391,65.10535339050709,44.80907417845995
-6.738425075714285,-94.33795106,4.407464535199674,-2.7361217035714285,2.00000025,3.4759,74,14,133.11099359871963,353.3081544,mp-37614,Al2NiO4,https://materialsproject.org/materials/mp-37614,1.5454978296698778,65.07102052776906,10.809991575039806,53.21709518935174
-6.225296765,-12.45059353,3.8339009637293295,-0.40268149833333394,0.0,0.0,123,2,32.418396199610754,74.8485386,mp-1953,TiAl,https://materialsproject.org/materials/mp-1953,60.24442923709673,53.8221875941176,80.80319294649591,17.863295995842023
-6.4399721525,-25.75988861,8.059231377954417,0.8092296025000003,8.074128,0.0,221,4,60.10624457586817,291.71860499999997,mp-1185925,Mn3I,https://materialsproject.org/materials/mp-1185925,57.239896309824545,55.881150323169024,81.53275677422184,11.603251651536615
-4.07159139,-32.57273112,12.857549517330082,-0.11206231500000063,1.685e-05,0.0,194,8,134.27616495359266,1039.7,mp-977129,HgPd3,https://materialsproject.org/materials/mp-977129,63.42592849073218,54.6205665996644,56.98496168903368,36.828973952524656
-5.548398903333332,-33.29039342,11.968400007485629,-0.4042612666666668,1.1967899,0.0,216,6,83.33973263204821,600.674379,mp-1077547,TmNi4Au,https://materialsproject.org/materials/mp-1077547,70.85139963803951,49.43013033992708,72.20916050810648,22.467101501616842
-7.155352103333333,-171.72845048,4.465686945299471,-1.832833543573333,11.000000300000002,0.5726,186,24,256.42768650603927,689.6108700000002,mp-773120,Mn3CrO8,https://materialsproject.org/materials/mp-773120,-11.066912158892405,69.72084935559606,1.560542396036296,58.92052692935916
-9.531656483333334,-114.37987779999999,11.881826385092777,-0.25682174500000104,5.35646055,0.0,164,12,162.90287563269732,1165.63576,mp-1224427,HfTaFe4,https://materialsproject.org/materials/mp-1224427,70.44377319304215,49.946630397343924,71.98280423649857,19.781260899250945
-7.013377365925924,-189.36118888,2.5402561184995265,-0.6073075950462952,0.0,2.0752,6,27,200.9848466484003,307.4622,mp-1228652,B8O,https://materialsproject.org/materials/mp-1228652,5.907535507858563,57.539903397475854,0.19957118736206694,54.41697902434447
-9.37514907,-150.00238512,4.944379016129148,-1.1348188228566674,3.307286875,0.0,62,16,175.73825498892032,523.27378,mp-1245699,TiMnN2,https://materialsproject.org/materials/mp-1245699,25.464058163328023,55.09378580414687,11.167493627102633,46.551418585614606
-3.94631776,-15.78527104,9.979275172692855,-0.15910904749999988,0.0005847000000000001,0.0,221,4,67.26719896190407,404.25300000000004,mp-1184210,Ga3Pt,https://materialsproject.org/materials/mp-1184210,48.942317501634534,36.68376037110095,58.00531393397448,34.38185145341541
-5.43662314375,-86.98597029999999,4.0643723345390255,-1.7454251562500005,8.0000001,0.0,12,16,138.70595522790512,339.49978500000003,mp-1174003,Li5Co3O8,https://materialsproject.org/materials/mp-1174003,6.906113010393477,85.9868620734387,-5.058338205451327,94.59350485623051
-6.5967584625,-131.93516925,3.5947095080871923,-2.606256969375001,2.9999997000000005,2.9729,2,20,167.13126249709615,361.8032,mp-762413,Li3CrSiO5,https://materialsproject.org/materials/mp-762413,4.838947421132583,85.60348585394235,-5.6496743542225385,83.28984240986908
-4.9220380335,-98.44076067,4.786885279994028,-1.355517786875,0.0,0.0,2,20,174.39158187601134,502.7238,mp-773166,Li5Cu3(NiO5)2,https://materialsproject.org/materials/mp-773166,2.8800101110884304,80.3344382555179,6.293889274741079,76.84049810485412
-6.844736021899999,-684.47360219,2.585868886548809,-2.866778171275,0.0,4.4661,1,100,803.0706541079172,1250.5791,mp-1244907,BeO,https://materialsproject.org/materials/mp-1244907,-34.94401154601737,43.60344806774189,-1.481021807290393,55.84923643046368
-6.456671621111112,-116.22008918,7.326845876787207,0.3610081815877777,0.004240033333333333,0.0,152,18,182.0498711307929,803.2640700000001,mp-1246189,Co2AgN3,https://materialsproject.org/materials/mp-1246189,25.085760049480825,50.11982294524585,50.8542095230634,5.926124653451308
-9.3162320625,-37.26492825,10.468145342174358,0.12506072000000046,3e-07,0.0,221,4,62.53743043594589,394.24,mp-1186014,Mo3Pd,https://materialsproject.org/materials/mp-1186014,67.14186335896788,60.965296204196406,88.45334761611718,18.13853969490155
-5.804742932857144,-81.26640106,10.322605879513251,0.06277070857142775,2.4e-06,0.0,127,14,230.45262514912295,1432.59,mp-1103522,Ga5W2,https://materialsproject.org/materials/mp-1103522,60.46083500332603,62.03744569288229,80.7146073765378,8.449991811514305
-5.914582863571428,-82.80416009,4.383651443938992,-1.6422558629942858,4.0000005,0.19600000000000015,74,14,139.83126590085809,369.14009,mp-756366,LiMnNiO4,https://materialsproject.org/materials/mp-756366,1.090817519406734,68.43626112915254,17.384169617015164,83.0115210140345
-6.8123316075,-27.24932643,11.42718706396867,-0.27029161250000033,4.79e-05,0.0,221,4,62.55459283645447,430.4765,mp-973342,SbRh3,https://materialsproject.org/materials/mp-973342,67.25153209122725,60.8252979300806,88.44904717957668,18.127193625501185
-7.0139891270370365,-189.37770643,2.5433354746100862,-0.6079193561574064,0.0,2.4693,8,27,200.74150324292546,307.4622,mp-1228685,B8O,https://materialsproject.org/materials/mp-1228685,5.9070086259588175,57.536931465660544,0.2135573234039345,54.420509841274026
-5.546127293333334,-33.27676376,11.734777383810865,-0.3853424041666672,0.0018859999999999999,0.0,216,6,84.43233378822141,596.670489,mp-1077340,HoNi4Au,https://materialsproject.org/materials/mp-1077340,71.00687187402586,49.221229877593366,72.18980665211912,22.730976329991478
-6.9514516025,-27.80580641,5.046349985928082,-0.5316524999999999,5.19e-05,0.0,225,4,71.72246750547397,217.9633626,mp-862546,Sc2AlRu,https://materialsproject.org/materials/mp-862546,89.01204263474047,-0.7132042586706285,66.9432798779226,48.040075486790435
-7.708404935625,-123.33447897,16.783020998255484,-1.0289027706249998,2.6e-06,0.0,194,16,267.7264856523276,2705.9040000000005,mp-1188129,ZrPt3,https://materialsproject.org/materials/mp-1188129,63.30854748974512,54.77330016625921,57.027290833361256,37.095684092352975
-7.283025938,-36.41512969,9.521935783117245,-0.13624385447599965,9.6815576,0.0,221,5,66.16580053328646,379.410835,mp-1206402,Mn3HgN,https://materialsproject.org/materials/mp-1206402,48.94709800985894,36.783422178936846,58.36310476989528,33.87675342822013
-5.436276146666668,-16.30882844,1.9851314857307825,-0.8733345724999992,2.9731848999999997,0.0,12,3,76.06353975439511,90.931995,mp-556750,CoO2,https://materialsproject.org/materials/mp-556750,5.747111271712916,71.03570818965888,16.913139848801674,88.53668106266201
-7.11275259,-42.67651554,3.827912699301669,-1.8023427594866657,3.00000035,1.5972,166,6,75.42597570904108,173.87368999999998,mp-755671,MnO2,https://materialsproject.org/materials/mp-755671,6.6896527212568495,70.62950612049823,14.58346706104854,84.36072860424224
-6.198454304270832,-595.05161321,3.7052892854469137,-2.198315200338334,45.0139755,1.2544000000000002,1,96,833.6850974263059,1860.2660850000002,mp-1177747,Li32Mn13Cr3O48,https://materialsproject.org/materials/mp-1177747,-11.254310000872087,100.59399579863113,-12.21021181539702,98.66307499233127
-8.081809374444445,-72.73628437,9.698182876400297,-0.6868750611111127,6.8e-06,0.0,225,9,123.9607201083572,723.9780000000001,mp-571126,Ti2BRh6,https://materialsproject.org/materials/mp-571126,58.79900189391245,55.109457269043396,81.49996529583218,14.324984362107756
-1.4291545241666668,-17.14985429,5.122707771180406,-0.045824987499999935,5.85e-06,0.0,12,12,201.13409470754561,620.4920000000002,mp-1094432,MgZn2,https://materialsproject.org/materials/mp-1094432,47.51271358950472,32.91567359537741,80.67122841891734,19.75100697338197
-10.62927814625,-85.03422517,11.207675146630152,-0.2402510375000002,0.0,0.0,223,8,138.9598368183543,937.89828,mp-1932,Nb3Os,https://materialsproject.org/materials/mp-1932,64.21850430228582,23.080073807146107,69.7443860583328,25.269401983895694
-3.0350035025,-12.14001401,5.566623330567502,-0.3714994229166666,7.6e-06,0.0,216,4,71.72993859196524,240.4602,mp-567347,Li2AgSn,https://materialsproject.org/materials/mp-567347,85.71155794100817,1.5343963774542353,65.42265072835383,45.05232474965807
-6.8889845422222225,-124.00172176,5.6414581254384535,-0.6328637978566662,0.00012933333333333332,1.9138,152,18,181.95801755338485,618.1779,mp-1247312,Si2AgN3,https://materialsproject.org/materials/mp-1247312,25.049823442354803,50.19257836499589,50.52053747182626,5.734097452041746
-3.69931646,-14.79726584,9.851432710582603,-0.1839078111250001,3.6000000000000003e-06,0.0,225,4,74.2014901723299,440.21306928,mp-865126,NaTlPd2,https://materialsproject.org/materials/mp-865126,87.77416645958598,-2.269846952818434,67.6931537616574,45.923321034510096
-3.476964565,-27.81571652,16.214538165871147,0.003074724999999834,1e-07,0.0,194,8,134.0442305438325,1308.8914140000004,mp-1184004,CuAu3,https://materialsproject.org/materials/mp-1184004,63.785911914119644,55.142563321187154,56.909517966864406,36.302776762468355
-11.029144105,-22.05828821,15.647336543342846,0.08367851499999901,8e-07,0.0,187,2,30.23544464426324,284.91,mp-1219476,RuW,https://materialsproject.org/materials/mp-1219476,62.08235038887361,60.92533698963109,84.48126680061566,13.82638240397242
-7.010094855555555,-378.5451222,2.5334588362146766,-0.6040250846759251,0.0,2.3516000000000004,12,54,403.04817992395067,614.9244,mp-758933,B8O,https://materialsproject.org/materials/mp-758933,5.908683828447767,57.53297535089647,0.18442079277673248,54.414780410761786
-7.432309125,-29.7292365,18.115720568666934,-0.17410168499999926,0.0001527,0.0,25,4,62.440017522246244,681.192,mp-1221420,MoPt3,https://materialsproject.org/materials/mp-1221420,61.16396698294256,58.2034695027447,82.92022877015401,14.558218190968102
-3.55658383,-14.22633532,6.551742992772608,0.11293063569000016,1e-07,0.0,164,4,32.722387820787944,129.10788,mp-1225705,CuH,https://materialsproject.org/materials/mp-1225705,32.03112987368109,57.715021821411256,83.36830287627954,18.621159894437564
-6.07046209,-12.14092418,3.7305717893273416,-0.247846823333334,0.1007443,0.0,187,2,33.316319173329035,74.8485386,mp-1217008,TiAl,https://materialsproject.org/materials/mp-1217008,60.55165845537122,53.26929595154686,80.99648880789901,19.166572894811907
-5.66349079125,-90.61585266,3.931109921635913,-1.8321425056850007,10.0000009,0.0,12,16,141.7204188191736,335.504635,mp-1174059,Li5Mn(CoO4)2,https://materialsproject.org/materials/mp-1174059,3.9876282494199513,93.26998973046464,-3.8606995742857806,93.99164815828257
-5.930272045,-23.72108818,17.392278772420465,-0.3853010087499991,2.25e-05,0.0,221,4,67.21122625576436,703.962,mp-20971,SnPt3,https://materialsproject.org/materials/mp-20971,63.09125173168438,54.7913958065708,57.530300638505686,38.36157486299074
-10.5144095,-42.057638,18.037474954099764,-0.3456871949999982,6.6559016,0.009000000000000341,221,4,67.56329614295855,733.9010000000002,mp-510400,GdIr3,https://materialsproject.org/materials/mp-510400,69.02862670648068,56.90459454520024,57.19973743500734,41.34878206052113
-4.506331411666666,-54.07597694,4.651844554913749,-0.4839691241666664,0.0,0.35619999999999985,87,12,129.49524597885468,362.7688,mvc-12050,NiO2,https://materialsproject.org/materials/mvc-12050,1.6045971078872379,72.0366955839844,2.684748886908105,56.16804679602268
-5.832665712142857,-163.31463994,4.199903735336326,-1.8921525173007143,9.000000199999999,0.8390000000000001,1,28,247.16048149311737,625.12847,mp-1174644,Li4MnCo2O7,https://materialsproject.org/materials/mp-1174644,10.302637358030776,87.20981145798417,8.875397503036233,95.87030167368376
-7.031634148947368,-668.00524415,2.5492522759689122,-0.6370362442763161,0.0011397,2.8160000000000003,1,95,706.1754082220341,1084.1174,mp-758800,B84O11,https://materialsproject.org/materials/mp-758800,5.911125853348193,57.52885558473522,0.17493662664200696,54.41423516511779
-6.01135048625,-96.18160778,3.9457373150700894,-2.03985190262,8.0000005,0.4962999999999997,2,16,139.51370758268934,331.5094850000001,mp-1174006,Li5Mn2CoO8,https://materialsproject.org/materials/mp-1174006,6.450906851894878,86.24583016096891,-5.006087822026876,94.59844867667276
-4.3755819275,-35.00465542,10.834976141193755,-0.2632918762500003,6.45e-06,0.0,194,8,132.31345202701382,863.342,mp-1183675,CdPd3,https://materialsproject.org/materials/mp-1183675,68.08871905667486,58.99056983079267,58.01147630959795,41.39993638458053
-6.207525676458333,-595.92246494,3.692289640514053,-2.204359390214167,43.0806787,1.0640000000000005,5,96,833.9741270811261,1854.382195,mp-778090,Li32Mn11Cr5O48,https://materialsproject.org/materials/mp-778090,-11.249015952327698,100.52381892145095,-12.231277387718984,98.61517176701254
-6.992504704,-139.85009408,3.4647247020409715,-3.0507251642499997,0.0,5.0422,15,20,192.45321907007514,401.5548,mp-603907,MgSiO3,https://materialsproject.org/materials/mp-603907,5.850311785581117,61.66080751596324,-6.7454716199191855,63.15254574639194
-9.29353826,-27.88061478,12.408741046270663,0.5956744358333346,0.0,0.0,187,3,28.67114502172484,214.2514,mp-1008835,OsC2,https://materialsproject.org/materials/mp-1008835,49.609963780651206,18.309277171310306,47.88118849090544,-0.9131389969953584