energy_per_atom,energy,density,formation_energy_per_atom,total_magnetization,band_gap,sgr,num_sites,cell_volume,weight,mp_id,formula,URL,tsne_cry_0,tsne_cry_1,tsne_xrd_0,tsne_xrd_1
-4.2922448430000015,-42.92244843,3.2833760750549232,-2.6171214063140003,1.9999995,0.7518,225,10,132.84511237964514,262.6740192,mp-1207213,K2LiCuF6,https://materialsproject.org/materials/mp-1207213,-13.620324741300804,52.40732264005479,-2.8218981160584597,57.51789197477429
-7.7314795775,-61.85183662,4.525717952958212,-0.8719624299400001,0.0,3.710900000000001,215,8,58.03912607607815,158.1828,mp-1019740,GaB3N4,https://materialsproject.org/materials/mp-1019740,1.5482662415915742,72.29428891957248,48.24197377318329,-1.1020578180848493
-6.569380435909091,-144.52636959,9.456737774042463,-0.4968582637878789,1e-07,0.0,194,22,387.3881438115332,2206.1679999999997,mp-30061,Sn4BRh6,https://materialsproject.org/materials/mp-30061,60.89926659050937,34.178061456026306,77.22143962968784,14.429496324025544
-11.403119699999998,-22.806239399999995,15.916113512065172,-0.0019526687499986648,0.0003318,0.0,187,2,29.65151125515216,284.207,mp-1186915,ReTc,https://materialsproject.org/materials/mp-1186915,61.88458823722544,61.210155145381954,84.66489056123307,13.425390486404115
-5.785005664375,-185.12018126,4.263735409157127,-1.8496567009975,13.9999994,0.0230999999999999,2,32,281.57754724443083,723.001465,mp-1175801,Li9Mn2Co5O16,https://materialsproject.org/materials/mp-1175801,18.388400094106878,88.32248195234459,10.46184530992178,91.3304186568211
-5.038603405,-20.15441362,7.737306143476517,-0.2743558012499996,5.2e-06,0.0,225,4,74.47447446861041,347.01491200000004,mp-1185508,LuScCu2,https://materialsproject.org/materials/mp-1185508,87.97740304436006,-2.231850752315252,68.50728981300959,46.45906492397088
-6.76443372,-33.8221686,13.079936111222027,-0.029994935999999937,0.0,0.0,166,5,77.3804816059028,609.52,mp-1219940,Pd4W,https://materialsproject.org/materials/mp-1219940,63.01106519137582,60.114367076590156,83.54971318855898,15.258052447541456
-7.224978100517242,-419.04872983,3.0358618302059246,-3.051506879176897,3.3007923999999997,0.0,194,58,637.54629685367,1165.5868492,mp-1214955,Al11NO17,https://materialsproject.org/materials/mp-1214955,3.133521111520611,61.86830237159982,8.034186918159921,52.75739416486296
-2.6373392475,-10.54935699,7.9049819962906955,-0.4084434200000002,0.0009676,0.0,225,4,71.03951336357592,338.18300000000005,mp-867196,LiCd2Pd,https://materialsproject.org/materials/mp-867196,89.50472486414176,2.5642806311165973,66.54163520955481,48.2579604934676
-6.3183167804166676,-151.63960273,4.601526121878159,-1.434171565953335,18.000000699999998,0.0,8,24,255.96085861655598,709.29412,mp-1176503,Mn3Fe2Co3O16,https://materialsproject.org/materials/mp-1176503,0.35086344543075465,72.22263752418971,2.4324124579685864,58.585077131550854
-5.964397003571428,-83.50155805,4.361928167109371,-1.7106172000000004,4.0000003,0.027399999999999647,74,14,141.40076437138825,371.43359,mp-761710,LiFeCoO4,https://materialsproject.org/materials/mp-761710,0.6792279803932699,68.30221260544985,16.808465897648873,82.86291984857955
-5.24659116,-20.98636464,10.196612074734137,0.670865974999999,0.0001689,0.0,139,4,63.28763978315276,388.6205,mp-974371,Rh3Br,https://materialsproject.org/materials/mp-974371,66.92285407195227,59.87965214813057,84.71529689292262,17.028717307775434
-5.1278449,-20.5113796,8.625033982101769,-0.7269560725000002,0.00042229999999999996,0.0,225,4,71.27427341498338,370.206912,mp-867911,ScCdPd2,https://materialsproject.org/materials/mp-867911,94.62548796907792,2.3422468213793453,71.31109858832419,55.21507327038376
-5.514886296785713,-154.41681631,4.25178738037535,-1.7345448711607143,8.99999975,0.8438000000000003,2,28,247.26505360881188,633.11877,mp-1174228,Li4Co3O7,https://materialsproject.org/materials/mp-1174228,9.56390638270325,86.79209180678839,9.20157878481766,96.34122035210493
-7.0941050610000005,-70.94105061,2.6581591650870746,-0.3320460321666673,0.0,0.4966999999999997,140,10,107.0994793186458,171.4428,mp-10289,Ca(BC)2,https://materialsproject.org/materials/mp-10289,32.36627143281705,51.322368339555204,27.162646462804798,-38.22139341974136
-7.000085048,-35.00042524,8.476520216376302,-0.5635878946666665,0.0,0.0,139,5,59.159124076993024,301.98839,mp-5135,Dy(CoB)2,https://materialsproject.org/materials/mp-5135,55.80004421576869,25.348793007656557,48.973356666386145,-1.7413458311584076
-8.38422042625,-201.22129023,7.1847485815561125,-0.16610223937499904,2.5e-08,0.0,213,24,327.07526087011405,1415.1751087999999,mp-18093,Al2Mo3C,https://materialsproject.org/materials/mp-18093,50.95347127491904,37.566918060529325,68.7218595748493,16.1838524566669
-7.039989275763888,-1013.75845571,2.0755105548378854,-2.4139400932638884,0.0,1.4904000000000002,230,144,2307.418591155043,2884.0464,mp-683953,SiO2,https://materialsproject.org/materials/mp-683953,-81.35086905592428,31.75692876135139,-81.60890922106604,42.91667009852555
-7.87831752875,-63.02654023,7.1487205486512755,-0.17416166500000066,1.4397197,0.0,200,8,115.47620142866344,497.13199999999995,mp-1216450,V6GaSb,https://materialsproject.org/materials/mp-1216450,50.02127315250072,41.07674815793197,80.55878959776895,-2.8827004150288125
-8.0795194575,-32.31807783,3.126327505346774,-0.4457697186158329,0.0,0.0,115,4,25.303517755860124,47.6394,mp-1008527,B2CN,https://materialsproject.org/materials/mp-1008527,31.944094851887847,64.42729755278064,86.47553197362672,13.954630833763973
-8.66971073,-34.67884292,11.124633679696954,-0.3888718099999995,2.2e-06,0.0,225,4,69.25692168213683,463.98059000000006,mp-865248,TmNbRu2,https://materialsproject.org/materials/mp-865248,95.98170760843924,5.118378581478856,65.06255065761003,64.6508789261198
-5.4841024745833336,-131.61845939,4.194494345060045,-1.7235707018750002,16.0000005,0.0,2,24,211.8959837028538,535.245775,mp-1174315,Li7Co5O12,https://materialsproject.org/materials/mp-1174315,9.453639215365369,86.7451159906353,9.413522441296022,96.50766782337816
-8.27021779125,-66.16174233,5.094639497035,-0.34784630093749946,1.175e-05,0.0,164,8,92.52079095031591,283.8596772,mp-1228847,AlVCrC,https://materialsproject.org/materials/mp-1228847,31.29997097766233,58.502154644661296,81.89615526688226,19.856594029428585
-5.21354258625,-41.70834069,10.12152866488233,-0.3975609962500002,1.55e-06,0.0,63,8,107.71273628820423,656.544364,mp-13453,BePd3,https://materialsproject.org/materials/mp-13453,61.147553644234726,40.44337721243103,73.7737903465966,10.654662343351813
-7.868524935,-31.47409974,12.7579679962208,1.06422932125,0.0061897,0.0,216,4,67.02722451447173,514.972045,mp-631560,SrMnRe2,https://materialsproject.org/materials/mp-631560,94.7224767126342,9.553872517074776,61.042389459229916,66.19091490526135
-7.179065624000001,-35.89532812,4.34912748746663,-2.2439325845833342,8.400000000000001e-06,0.0,123,5,60.864741669700024,159.4112,mp-1147748,TiCuO3,https://materialsproject.org/materials/mp-1147748,-10.551386703343807,72.76856810396177,-3.914604252955023,57.096701662774315
-7.5180871525,-30.07234861,6.557076300233188,-0.17771379499999984,6.829999999999999e-05,0.0,225,4,72.77948773443259,287.389,mp-865893,LiZr2Tc,https://materialsproject.org/materials/mp-865893,89.22735861695526,-1.2194861921896445,68.2107372018201,47.49913039745378
-5.5031267965625,-176.10005749,4.275403079362803,-1.70792813125,22.000000600000003,0.3441000000000001,2,32,283.91249694330895,730.991765,mp-1175505,Li9Co7O16,https://materialsproject.org/materials/mp-1175505,5.580235526403475,95.83786471789074,2.2853854837077785,89.89557452116554
-5.1775501975,-20.71020079,17.71571341426104,-0.3167218162499994,1.18e-05,0.0,221,4,60.988116427514896,650.661,mp-30856,ZnPt3,https://materialsproject.org/materials/mp-30856,58.00182564232912,58.31136724970098,81.84017465676357,12.914255547275788
-5.798568903125,-185.5542049,4.263066018527531,-1.8632199397474996,16.0000003,0.5091999999999999,2,32,281.62176081532346,723.001465,mp-1175403,Li9Mn2Co5O16,https://materialsproject.org/materials/mp-1175403,18.72796770561914,88.6363695550847,10.578899871821038,90.92944938012558
-5.8067271896875,-185.81527007,4.239259040586397,-1.8713782263099992,21.9999998,0.6179000000000001,1,32,283.2033020665856,723.001465,mp-1175562,Li9Mn2Co5O16,https://materialsproject.org/materials/mp-1175562,10.066593126448646,87.18619685230505,8.638581199002214,95.97658847594272
-5.173207205,-62.07848646,4.120405006555168,-0.23939737833333294,5.5e-07,0.0,167,12,186.06501346862308,461.69538600000004,mp-571053,Al5Mo,https://materialsproject.org/materials/mp-571053,47.00986520634936,38.47772705263196,76.21923830914514,15.513216489967046
-7.266689619749999,-290.66758479,3.4045543899459823,-3.2315992330000003,1.9625e-06,3.6163,1,40,397.84514968268303,815.6902176,mp-1247846,Al2O3,https://materialsproject.org/materials/mp-1247846,6.475407175875595,64.24699395711801,5.123571911022969,54.02452794161388
-8.453771869999999,-101.44526244,7.399139136692753,-0.1630605607933333,2.986326075,0.0,60,12,112.83706047050389,502.7868,mp-21476,Fe2N,https://materialsproject.org/materials/mp-21476,48.47798242136696,62.81400227294085,89.94705249401527,11.521542009707591
-5.240235965,-10.48047193,14.940628324689223,-0.17190910749999944,1.66e-05,0.0,187,2,28.63320212658717,257.62600000000003,mp-1206819,ZnIr,https://materialsproject.org/materials/mp-1206819,60.615036407325036,62.26477672087528,82.28348582509562,8.601152008179563
-5.605326681428571,-313.89829416,4.35890642540484,-1.5405242996428572,9.99988105,0.5879000000000001,4,56,535.7936343797469,1406.4555300000002,mp-771191,Li5Co7O16,https://materialsproject.org/materials/mp-771191,-0.4652292715249013,70.80329000498833,4.299472714572592,57.8368677115823
-5.6920956525,-22.76838261,8.638333459501402,-0.8319258295833327,8.900000000000001e-06,0.0,225,4,71.6272358116212,372.613912,mp-31339,ScInPd2,https://materialsproject.org/materials/mp-31339,94.61980584643601,2.2764832815361817,71.44592239622152,55.232944934537954
-5.5203842159375,-176.65229491,4.293222983797336,-1.7251855506249996,22.000000699999998,0.5780000000000003,2,32,282.7340597686285,730.991765,mp-1175444,Li9Co7O16,https://materialsproject.org/materials/mp-1175444,9.814193396008903,86.87478293181452,8.757782645285719,96.10529501706283
-3.9379062720833335,-94.50975053,2.7095178546695777,0.2137501579166668,5.2325e-05,0.0,25,24,394.56035191718314,643.808,mp-1073367,MgSi2,https://materialsproject.org/materials/mp-1073367,58.46735422212549,47.926342086691115,73.31317501278392,8.630473415200493
-6.207798668333332,-595.94867216,3.6663953317995177,-2.2046323820891662,43.023371600000004,1.1201,5,96,839.864158447704,1854.382195,mp-1177917,Li32Mn11Cr5O48,https://materialsproject.org/materials/mp-1177917,-11.152878930480176,100.02762752382192,-12.443260111173997,97.91489117188804
-5.870243612083333,-140.88584669,4.154644926102975,-1.9228447752883335,14.0000009,0.5569000000000002,2,24,210.7348078750216,527.2554749999998,mp-1174535,Li7Mn2(CoO4)3,https://materialsproject.org/materials/mp-1174535,5.130388587723087,87.93426907357245,10.236090798543964,94.3732803397737
-6.28432163,-25.13728652,9.689054078222524,-1.5419643418749995,0.0,0.0,166,4,38.18066781718873,222.7798,mp-25467,LiWO2,https://materialsproject.org/materials/mp-25467,51.050856671570116,18.90805364848468,50.06380194636353,6.96348072932555
-6.348803672727272,-139.67368080000003,4.258103927207116,-1.9429869684090912,14.9999997,0.7728000000000002,2,22,215.47666202426484,552.544685,mp-753039,Li4Cr3(CoO4)3,https://materialsproject.org/materials/mp-753039,11.211835538769176,76.52822037906581,21.345557315157567,82.83496362837313
-6.768623406666666,-20.30587022,9.264815354485616,-1.2181036499999998,0.0,0.1120000000000001,216,3,72.72281644263285,405.74985,mp-4964,YSbPt,https://materialsproject.org/materials/mp-4964,86.89146102025038,-1.9575651455733167,66.60772795118895,46.462936191621225
-5.812894331428572,-162.76104128,4.1944874040166855,-1.8723811365864296,7.0000003,0.3410000000000002,5,28,247.47963921799374,625.12847,mp-1174782,Li4MnCo2O7,https://materialsproject.org/materials/mp-1174782,19.19089507226278,90.78843999791744,9.91023106835403,89.15827347036549
-1.692054335,-6.76821734,8.027626016255496,-0.03026582291666635,0.0,0.0,187,4,62.90302393934247,304.0952000000001,mp-1215497,Zn3Ag,https://materialsproject.org/materials/mp-1215497,58.53472203220778,50.12574838834957,82.34963893626048,19.671078749303753
-4.177498265,-16.70999306,6.853705649150054,-0.3696753954166665,2e-07,0.0,123,4,61.23034293410636,252.722,mp-1216640,TiZnGa2,https://materialsproject.org/materials/mp-1216640,59.83893124223177,55.96081392984404,85.11133365802738,15.671143019759517
-7.105343564999999,-85.26412278,4.5616815594506015,-1.7949337344866656,0.0,0.8976999999999999,62,12,126.58667489654005,347.74737999999996,mp-19326,MnO2,https://materialsproject.org/materials/mp-19326,-10.552043029208146,69.07087968076155,-14.554023758175326,56.39777337943285
-5.619223975714285,-39.33456783,7.751027701409536,-0.6944571892559525,1.24e-05,0.0,166,7,129.0726534217994,602.4825,mp-1077883,In2Rh3S2,https://materialsproject.org/materials/mp-1077883,52.00914224315184,18.708660491924114,49.51520000006123,5.479369260048257
-5.126778129666667,-153.80334389,2.879389213043368,-3.486773601980667,0.0,7.2639,164,30,391.1910342060257,678.3286734000001,mp-556996,K2LiAlF6,https://materialsproject.org/materials/mp-556996,-12.951202291669777,51.92430650210431,-2.416648537737331,57.55908610429287
-7.1969910905172405,-417.42548325,3.0616395511360595,-3.1520045931896554,3.0254282999999997,0.0,11,58,634.3399826986689,1169.5722492,mp-1229215,Al11O18,https://materialsproject.org/materials/mp-1229215,3.118878538765814,61.86544822806538,7.986165473760372,52.726774763382394
-6.53156440125,-104.50503042,2.9810860693205057,-2.6713968452799994,0.0,4.8339,62,16,133.65984911720687,239.95311439999998,mp-625420,AlHO2,https://materialsproject.org/materials/mp-625420,-6.733684230698169,68.8230539962308,-8.34798311108318,63.425918278986046
-6.2903560245,-125.80712049,3.5751965241693884,-2.489541830374999,5.0,2.2421999999999995,2,20,171.61877163146676,369.501,mp-772106,Li3FeSiO5,https://materialsproject.org/materials/mp-772106,5.233524959853461,85.80998675098013,-5.23291254243712,94.35134904648548
-5.4026824175,-21.61072967,10.065936274928706,-0.16581664500000048,2e-07,0.0,139,4,64.35609085033506,390.11688,mp-11416,TaGa3,https://materialsproject.org/materials/mp-11416,50.699373259876936,38.346139185439576,78.00285778289359,15.316249441441979
-5.871409086,-88.07113629,14.182581250071227,-0.5200118973333332,0.0,0.0,189,15,211.80453662575655,1809.012,mp-28613,LiBPt3,https://materialsproject.org/materials/mp-28613,52.22863324436553,19.495411376066816,70.52372255680581,14.412836361084556
-7.678735315,-15.35747063,6.701470274997068,-1.0810534625000008,1.5e-06,0.0,225,2,41.16876503258751,166.1456,mp-10054,ZrAs,https://materialsproject.org/materials/mp-10054,23.65262416023193,22.79936157745632,58.92978012504543,-27.69521039349564
-6.3800793075,-25.52031723,10.270412106491404,-0.08729688000000024,2.8960995,0.0,221,4,60.025366216657936,371.2561,mp-865786,CrPd3,https://materialsproject.org/materials/mp-865786,58.98513960244977,56.70275197272261,83.56497312560144,11.729826683062255
-5.311141498333334,-31.86684899,10.759963824375868,-0.061532651666666986,2.52418825,0.0,227,6,89.7886694537257,581.81278,mp-281,YbCo2,https://materialsproject.org/materials/mp-281,80.16260933832068,29.46721892985115,71.25666098093706,26.19471588549772
-9.673799824166668,-580.42798945,5.639359834703188,-0.5263359715833341,2.5e-08,0.0,212,60,579.0249061674506,1966.4276,mp-542730,V8C7,https://materialsproject.org/materials/mp-542730,29.72754981977612,59.804974651776476,82.90404934937855,21.89895980031749
-10.05262038,-40.21048152,10.604381669078448,-0.3263834012500002,4.51e-05,0.0,225,4,66.06587159936905,421.903792,mp-867901,ScTaTc2,https://materialsproject.org/materials/mp-867901,94.61251257270085,10.003875928623296,60.94955764022999,66.19429172832965
-5.87406553,-140.97757272,4.115379545626084,-1.9266666932050007,14.0,0.7088000000000001,10,24,212.74545654525951,527.2554749999998,mp-1174874,Li7Mn2(CoO4)3,https://materialsproject.org/materials/mp-1174874,15.424854549769025,89.67403089429231,7.5169690936949225,92.18882124872637
-6.2391882525,-24.95675301,9.51323547916816,-0.32846840749999995,4.315614599999999,0.0,225,4,67.9940208254297,389.538045,mp-3499,MnSbPd2,https://materialsproject.org/materials/mp-3499,96.22233122618209,8.518979340286831,63.57569821327674,64.85499570348654
-5.4904492320000005,-27.45224616,10.003753191790704,-0.26287223900000073,1.73e-05,0.0,166,5,75.3212632608184,453.7655,mp-1219217,SiPd4,https://materialsproject.org/materials/mp-1219217,59.2352492652393,43.653086881248534,83.12248764541762,17.806561613032425
-4.2856655375,-17.14266215,7.9890107444407965,-0.2917366418749996,3.4e-06,0.0,225,4,71.04723852731901,341.815,mp-862906,PmGaCu2,https://materialsproject.org/materials/mp-862906,94.35556886491624,2.0721610902971204,70.50471543999112,54.904607849905084
-10.910822646666665,-32.73246794,19.531808974089056,0.3825735783333333,2.65e-05,0.0,191,3,60.70962984964592,714.08673,mp-1076920,U,https://materialsproject.org/materials/mp-1076920,49.2312617375714,20.09300110676727,68.05266974134493,9.999159074134932
-5.763252345,-23.05300938,4.501842514327442,-0.42389016749999975,1e-07,0.0,139,4,64.1262693552719,173.85099580000005,mp-1842,NbAl3,https://materialsproject.org/materials/mp-1842,47.15454962557096,37.649901591249794,57.296350904128154,32.501597537186015
-4.970890695,-79.53425112,10.367019077435033,-0.35464729125000005,2.325e-06,0.0,123,16,253.13827538944312,1580.384,mp-1213092,CuSnPd2,https://materialsproject.org/materials/mp-1213092,61.73657269142062,56.41728496264939,82.47429669930091,16.941207924695757
-3.79595226,-15.18380904,8.533395384467934,-0.5771139562499998,8.2e-06,0.0,225,4,68.02115201678676,349.5560000000001,mp-1185850,MgCdPd2,https://materialsproject.org/materials/mp-1185850,93.26345700307064,9.112623467162765,58.59814528911761,66.87280650426975
-5.71545219,-22.86180876,5.0075787954726705,-0.31475558999999986,0.6567494,0.0,139,4,59.33896053764502,178.9446158,mp-867347,Al3Tc,https://materialsproject.org/materials/mp-867347,55.69574148141397,56.62155943864175,76.18769146218588,15.815528475812654
-4.9088727,-14.726618099999998,10.410044300878084,-0.7507294933333325,0.0,0.0,216,3,69.31435137540986,434.536889,mp-13308,HoGeAu,https://materialsproject.org/materials/mp-13308,86.7329918085701,2.1988297449330494,58.01028146466589,69.5106915282932
-6.3585781575,-50.86862526,16.86282441055101,-0.4596271912500001,7.6e-06,0.0,127,8,120.79481333017333,1226.675,mp-1079269,SiPt3,https://materialsproject.org/materials/mp-1079269,55.79215802885667,41.80366489812028,79.1518629609738,12.285164990617995
-4.532895489,-45.32895489,2.6787019661522264,-0.5051110170946664,4.321168599999999,0.0,225,10,126.3845639745614,203.8775192,mp-1080110,Ti(NF2)3,https://materialsproject.org/materials/mp-1080110,-25.36848478063577,62.32608079749085,-41.715427188964036,65.47169010077346
-5.79986374375,-185.59563980000001,4.265627364533412,-1.8645147803724988,15.9999994,0.4953000000000003,1,32,281.45265772436176,723.001465,mp-1175715,Li9Mn2Co5O16,https://materialsproject.org/materials/mp-1175715,18.84653217924953,88.73649818451416,10.590964951972818,90.84573915068935
-7.09646562,-21.28939686,6.073167135663588,0.1804054799999998,0.0023726,0.0,69,3,57.4508712971929,210.11776,mp-1061772,MgNb2,https://materialsproject.org/materials/mp-1061772,44.46817707046514,29.917247429929343,47.08311952139224,31.56818948419012
-3.7343074875,-14.93722995,10.458141308203752,0.22393217250000008,2.3100000000000002e-05,0.0,221,4,67.72108457252695,426.5101,mp-985297,Ag3Rh,https://materialsproject.org/materials/mp-985297,68.14256670184096,58.759140764329125,57.37625334190158,41.726590846090176