energy_per_atom,energy,density,formation_energy_per_atom,total_magnetization,band_gap,sgr,num_sites,cell_volume,weight,mp_id,formula,URL,tsne_cry_0,tsne_cry_1,tsne_xrd_0,tsne_xrd_1
-3.582607775714286,-50.15650886,3.955771655300116,-0.8388022635401791,9.000000000000001e-07,1.1378,12,14,354.5476810561264,844.61107712,mp-1173753,Na2Ga2Se3,https://materialsproject.org/materials/mp-1173753,-3.9397212900092615,-1.0276036334357217,-11.174475351429956,-15.0576647518626
-8.78296243631579,-166.87628629,6.552806442486943,-3.9634925565789474,0.0,1.9787000000000008,148,19,320.17053925578864,1263.45453,mp-19992,La6UO12,https://materialsproject.org/materials/mp-19992,-23.83029972935361,-66.32200565503732,-16.02398507589013,-66.71439839504714
-3.4639304883333337,-41.56716586,7.291513860640007,-0.002556311666667218,3.5e-07,0.0,205,12,290.3595532889143,1274.984,mp-1103235,CuTe2,https://materialsproject.org/materials/mp-1103235,28.22452366336557,24.638744111544572,38.27137709747222,-23.65545517521822
-5.877039059583333,-141.04893743,4.923307434054454,-3.963303316267471,8.7575e-05,6.8648,62,24,407.9336015416162,1209.4762512,mp-1209185,RbPrF4,https://materialsproject.org/materials/mp-1209185,-13.260128942736833,-26.966174960894307,-17.08683480874252,-16.10607927770869
-6.3871594785,-127.74318957,6.263140161743702,-2.4742381536875,0.0,1.0299,11,20,456.8344772121556,1723.066,mp-1189434,Nd(LuS2)3,https://materialsproject.org/materials/mp-1189434,9.014041313488672,-3.126268263633281,-5.403140657556043,-14.698922015780044
-3.333325295,-6.66665059,4.552261803080231,0.15617411640625,0.00037135,0.0,63,2,57.60484272221859,157.92,mp-1009757,Se,https://materialsproject.org/materials/mp-1009757,12.629490680046173,12.520335288686171,24.63698302017325,-41.0117645622172
-3.8740769671428574,-54.23707754,3.962928600589735,-0.9263315897023812,1e-07,0.19399999999999995,164,14,354.74496220931013,846.6099999999999,mp-21409,Zn(InS2)2,https://materialsproject.org/materials/mp-21409,-1.7745654405761984,9.44820468522624,-14.325815138187973,-70.91442747763296
-3.20574742875,-25.64597943,4.9222630577526205,-0.6924421621695402,5.18e-05,1.1743,140,8,307.31878576638394,910.9716,mp-22255,RbInTe2,https://materialsproject.org/materials/mp-22255,13.369130399575047,1.6875468001037104,-14.675155764820753,-8.761660054073504
-6.528654971666668,-39.17192983,7.393129985369969,-3.374311486750834,0.0,1.2996,129,6,97.02683720651643,431.9874464,mp-10931,HoSF,https://materialsproject.org/materials/mp-10931,14.788780414800884,-4.378400241106261,4.034462889953699,-10.474465945812307
-4.439336239166667,-53.27203487,6.024038415706983,-1.8325849436197919,0.00020059999999999997,1.5252,8,12,283.65321205782885,1029.0259999999996,mp-1215973,Yb4CdS7,https://materialsproject.org/materials/mp-1215973,9.188283781644039,-1.9502407607597536,-6.1572487715469775,-14.94241991577744
-4.368273997954545,-192.20405591,3.8959017697689258,-0.18430572704545448,5.17e-05,0.0,217,44,742.7973436238524,1742.7265579999996,mp-1194643,Al15Ni3Ge4,https://materialsproject.org/materials/mp-1194643,17.08309148426443,23.20566562864312,38.70394311247214,-25.116358912773357
-3.39965684,-16.9982842,5.318409213786636,-0.2052138584895836,0.2622217,0.0,160,5,145.65784610490445,466.516,mp-19907,In2Se3,https://materialsproject.org/materials/mp-19907,22.805615313204218,-7.575501823871024,-0.5040020340105629,-7.156598239626322
-2.9913431722222223,-26.92208855,4.0460003835691305,-1.2608691463793105,0.0,1.4388999999999998,225,9,354.57590340202006,863.9449037999999,mp-641923,Cs2SnBr6,https://materialsproject.org/materials/mp-641923,-0.2982146550567608,13.674620214281967,-29.385473138330536,-70.52552176317229
-4.8556642717307685,-252.49454213,4.607820681730236,-1.1701610930271886,0.00257805,0.9806,163,52,1634.3116366103031,4535.0424038,mp-1213403,CsLa(NbBr3)6,https://materialsproject.org/materials/mp-1213403,7.958369253312229,1.29796361441998,-2.0563580239568084,-20.77036385356816
-7.376886285499999,-147.53772571,6.400952511418092,-2.1757858819374998,6.7014009,0.0,62,20,442.55600472655505,1705.9399999999996,mp-1215815,YbGdS3,https://materialsproject.org/materials/mp-1215815,13.672774391838205,-5.700732752793923,-1.5271193713470164,-13.214907859038648
-4.00130902,-48.01570824,4.608984152852979,-0.5557508600868056,1.5e-07,0.4687000000000001,36,12,277.1091425741452,769.1428,mp-9900,Ag2GeS3,https://materialsproject.org/materials/mp-9900,0.4512865680628639,9.63268098837393,-16.431131416716273,-70.47503243467905
-3.7791859177777787,-34.01267326,4.152673305807634,-0.9601344729976856,0.0,0.0,160,9,208.2450982846997,520.779,mp-542644,Zn2In2S5,https://materialsproject.org/materials/mp-542644,-1.6412569068974332,9.636465033565432,-14.196916867624807,-71.08448278277004
-4.682802568412699,-590.03312362,2.5116533715095275,-0.419327085356508,0.0031877166666666665,3.4561,169,126,1690.920327334936,2557.60668,mp-567467,CdH12C4Br3N,https://materialsproject.org/materials/mp-567467,-2.9925183363164978,7.529971773366477,1.3256890711638598,-16.712133842718742
-7.520311218888889,-270.73120388,5.378515253452594,-3.430617818050766,2.75e-07,3.3679,62,36,777.542984439197,2518.4754476,mp-771235,CsLa3O5,https://materialsproject.org/materials/mp-771235,-4.928379391069259,-62.13615433161587,-24.409770079178706,-56.8350617432266
-6.5817818475,-52.65425478,7.777864900075787,0.032878231875000274,13.1939712,0.0,25,8,169.51810095445038,794.0125800000002,mp-1221739,Mn4BiSb3,https://materialsproject.org/materials/mp-1221739,25.867711148218888,22.196005624400215,26.556722603758878,-40.732380108845625
-7.0154368976,-350.77184488,4.1915121048377655,-3.0096312920452006,1.9999997999999999,0.0,173,50,709.8183900058066,1791.7148000000002,mp-720338,Sr7SiB3NO13,https://materialsproject.org/materials/mp-720338,-18.270638371818393,-32.099028213051824,16.72285496145954,-40.72708425675594
-6.248273200000001,-162.4551032,2.785170697192779,-2.234894473934067,0.0,3.6868,11,26,411.28185971955253,689.830324,mp-756801,K3GePCO7,https://materialsproject.org/materials/mp-756801,-17.765081355853408,22.97684682731854,-13.739179655861909,17.937143921770488
-3.0594935664285714,-42.83290993,2.8938256365155004,-1.8299305217200001,0.0,3.6352,55,14,344.5252740149433,600.40507712,mp-28658,Na2CdCl4,https://materialsproject.org/materials/mp-28658,-4.016985274594112,8.133151210458372,-34.343352515664414,-33.211054137749386
-3.8967990704545454,-85.72957955,3.743866145213842,-1.1015428239431817,1.7e-06,1.9671,1,22,542.0617672147773,1222.1373,mp-1223535,KCd4Ga5S12,https://materialsproject.org/materials/mp-1223535,-2.410168922417689,9.365949008457036,-33.62790462020625,-47.57658970140461
-6.6566660696875,-213.01331423,5.929491473756702,-2.278448793476564,0.0,1.2542,62,32,651.2891769726557,2325.6385600000003,mp-1199431,Ho2ZrS5,https://materialsproject.org/materials/mp-1199431,13.865400840118468,-5.969842794017807,-0.3717390469544815,-12.572836903323967
-7.1254781962500005,-342.02295342,4.327124564663328,-2.6041752219037355,0.0,3.6954,60,48,843.6155092469867,2198.34,mp-1200745,RbNd(MoO4)2,https://materialsproject.org/materials/mp-1200745,-51.76777325526112,-52.414033283196346,-27.25967348450555,-56.10627304435625
-3.036593405,-85.02461534,5.3907092251206885,-0.15250194285714258,0.0,0.8596999999999997,2,28,1081.6399068338105,3511.39364,mp-1192722,Te7RuI6,https://materialsproject.org/materials/mp-1192722,13.908677626967874,0.2363133043016241,-2.0629460068979752,-18.52710661933572
-2.951619633125,-47.22591413,4.258994831166186,-0.4402514962284485,0.0,0.5562,19,16,794.3318868098269,2037.3236152,mp-573514,CsSb,https://materialsproject.org/materials/mp-573514,2.0006750756479565,-3.900483347098456,-19.636226213880477,-13.814128170797188
-5.602717832000001,-28.01358916,6.555276108249031,-0.6257279552413785,3e-07,0.0,139,5,123.7586887191328,488.55965190000006,mp-569012,Cs(AsRh)2,https://materialsproject.org/materials/mp-569012,15.109344078958545,23.09582302964511,23.014022700145002,-47.17655589465551
-7.920150866153847,-411.84784504,6.5058469926608575,-3.497500864230769,0.0,3.5009,62,52,793.8953822219031,3110.4128,mp-559014,Nd4GeO8,https://materialsproject.org/materials/mp-559014,-10.949930060119257,-62.331878732834866,-6.462926575413983,-61.94183426239861
-6.258166901428572,-87.61433662,3.1117551807017283,-2.0993599006547625,0.9999998,0.0,166,14,330.70088878231405,619.71455,mp-1246925,Y3Mg2TiS8,https://materialsproject.org/materials/mp-1246925,14.131383268026395,10.318659049057123,-23.714919377173505,-78.52197552991446
-3.1709501325,-177.57320742,4.927050581561894,-0.36001649808292263,0.0,0.7882999999999996,14,56,2320.6916233202383,6885.815230400001,mp-21835,Cs2In2Sb3,https://materialsproject.org/materials/mp-21835,13.399745431003563,1.6496018657254268,-18.690720121904015,-12.202020503772856
-6.373218464230769,-165.70368007,2.6732283183365424,-2.3121079328096696,1.99999995,0.0,2,26,347.3337339023758,559.157208,mp-1192599,SrP2(HO4)2,https://materialsproject.org/materials/mp-1192599,-29.610451336454638,-23.356619353315917,-33.11431832829561,-30.293883310777698
-5.930189862857143,-83.02265808,3.4514044319655253,-1.7205032948214298,1.99999865,0.0,74,14,329.48236299534784,684.82394,mp-1247070,LaMgVS4,https://materialsproject.org/materials/mp-1247070,12.360813566757633,7.759614748661767,-24.092698859390016,-78.7718656850921
-2.9792831896875,-95.33706207,3.6891763593807,-0.15964385235991374,0.0,0.9138000000000002,142,32,1138.6570826777609,2529.7248,mp-1199056,RbGe,https://materialsproject.org/materials/mp-1199056,-1.9610586561545136,13.049522144371753,-0.19945562832572752,-35.66116839918277
-3.8601024808928566,-216.16573893,4.953331970266753,-0.4451362928616075,0.0005797125,0.7134999999999998,14,56,1407.5393416088427,4198.6424000000015,mp-1199182,KCu2SbSe3,https://materialsproject.org/materials/mp-1199182,-1.0876029467972108,1.9295503412188482,-30.18982145592267,-38.23435650786938
-3.7576181873333336,-112.72854562,2.7649360144858948,-1.0875368198040003,4.00000005,0.7995,2,30,688.9917886821571,1147.2288,mp-1193522,CaCd2(ClO)6,https://materialsproject.org/materials/mp-1193522,-26.421356256682518,-2.667297996115498,-34.08685143503925,-33.54147613967574
-4.103744320555555,-295.46959108,5.435641252527981,-0.5720657637104883,2.21625e-05,0.7775999999999996,114,72,1336.4138970260244,4374.6436152000015,mp-1201464,CsCu5S3,https://materialsproject.org/materials/mp-1201464,14.976656330178015,26.346127244001984,20.01688254376563,-47.71362599285682
-6.270778737857143,-351.16360932,5.606926104834732,-1.7894583587500006,3.954700075,0.0,1,56,1265.281677413794,4272.312,mp-675858,Lu2FeS4,https://materialsproject.org/materials/mp-675858,1.9075571017243855,24.892333043707172,-23.220825685824337,-80.09835179038555
-3.8849191863461536,-202.01579769,3.6151390250636513,-0.522756804220696,0.0,1.1967,9,52,1629.0425913947781,3546.568496,mp-581517,K2In(PSe4)2,https://materialsproject.org/materials/mp-581517,-0.3467594465283317,-0.10286513504620616,-1.5773275735009444,-23.02739327705676
-5.715123701197183,-811.54756557,3.8999335755558793,-3.963170795769296,4.00301345,1.0832,21,142,2060.9014786618627,4840.2227704000015,mp-1218962,Sr15Al6(OF24)2,https://materialsproject.org/materials/mp-1218962,-14.578382817432473,-26.02533321159597,-15.383935577779546,-16.819319555047482
-3.7836052157999998,-378.36052158,5.0430539642484575,0.05564998170000024,0.0,0.0,1,100,2381.374529480948,7232.23,mp-1245074,GaAs,https://materialsproject.org/materials/mp-1245074,33.30433874684175,20.790302758171748,54.20083283284647,-2.2374726721606346
-3.4638993607692306,-90.06138338,3.3841929202278744,-0.8152996546828166,0.0,1.4238,160,26,990.1549260583644,2017.9443,mp-1223703,K3Rb3Zn4Sn3Se13,https://materialsproject.org/materials/mp-1223703,-5.843883487919255,-0.6671950147382112,-25.195268036717213,-44.284489364748964
-3.976900054166667,-47.72280065,5.6675725843670035,-1.235023355331358,1e-07,1.6744,63,12,416.7969061234928,1422.5662037999998,mp-7211,CsPrHgSe3,https://materialsproject.org/materials/mp-7211,10.126011477499153,0.5335679113168599,-3.4466492148131085,-20.047831624998675
-5.349302735714286,-224.6707149,3.117383421901037,-0.5101091318472625,10.00000015,0.8406000000000002,2,42,615.5665019077691,1155.6228199999996,mp-1200967,Mn2Sb2H8S5N4,https://materialsproject.org/materials/mp-1200967,-23.939685606178607,-1.70301286939704,-33.7050133471451,-35.85954410690397
-6.552980905,-262.1192362,6.062924079840807,-2.1290262274375005,3.0003792999999996,0.2809000000000008,58,40,801.8081215460343,2927.5444,mp-1212952,Dy3CrS6,https://materialsproject.org/materials/mp-1212952,12.946775841774807,-3.8406593437554197,-4.3214015187124435,-17.37044513699891
-3.6726146885714286,-51.41660564,5.2000539722422126,-0.4937603637202384,0.0,0.2549999999999999,111,14,419.48555287681967,1313.6382,mp-571103,In5AgSe8,https://materialsproject.org/materials/mp-571103,15.423090910823376,14.715836799651935,5.890711727912072,-16.512388290600807
-4.762744095,-76.20390552,7.493666696780061,-1.1793587909635421,0.00011570000000000001,1.3039,19,16,390.6718813621602,1763.0207999999998,mp-1189356,LuAgSe2,https://materialsproject.org/materials/mp-1189356,27.524442512880906,0.043726671706112205,13.446460477960567,5.1549683318945085
-5.852914724444443,-52.67623252,3.6872482634813215,-1.0611144987404215,15.0000005,0.06740000000000013,21,9,251.6918741248777,558.8850388000002,mp-1226192,Cs2Mn3S4,https://materialsproject.org/materials/mp-1226192,-7.551921148759153,-11.14641121959188,-26.296252035543713,-33.577340826387164
-7.0517842795000005,-141.03568559,7.270810863846528,-2.588776132750001,0.0,0.7341000000000006,63,20,361.1342253065236,1581.2568,mp-1214439,CePbO3,https://materialsproject.org/materials/mp-1214439,-24.64472283990397,-62.369239635093024,-15.017933924071142,-62.005408825575714
-7.478074677249999,-299.12298709,6.189788824917399,-2.3667943185,17.94716815,0.0,217,40,674.2634459431464,2513.3696,mp-505043,Eu3Sb5O12,https://materialsproject.org/materials/mp-505043,-19.024553816415093,-67.23082515154826,-7.218623662904718,-67.52415936615579
-4.17465619125,-33.39724953,6.883349140255665,-1.3530690649479178,6e-07,0.0,141,8,166.47402004950374,690.0763999999998,mp-7962,YbAgS2,https://materialsproject.org/materials/mp-7962,22.626958643632204,10.595790821404897,29.006501781691718,-41.04499006166658
-4.8706467288888895,-43.83582056,4.087353306023639,-1.569236222064176,0.0,1.227,5,9,246.85742582179543,607.6301076000002,mp-561834,Cs4CO4,https://materialsproject.org/materials/mp-561834,-7.585504491149367,-15.277062154659884,-27.13885468691185,-3.002124282766563
-3.2212238,-74.08814740000001,3.6666048542891225,-1.0874092348967397,0.0,1.0371,8,23,564.0488571859607,1245.46561568,mp-1220798,Na6Cd7S10,https://materialsproject.org/materials/mp-1220798,-3.1280256746471378,-2.2266121927626057,-32.659709177380336,-34.5713602554568
-4.3321091460000005,-21.66054573,5.030343110642773,1.162297772,0.0252441,0.0,123,5,164.555126757544,498.494,mp-636095,Zr3Cd2,https://materialsproject.org/materials/mp-636095,22.389165513717327,5.5742179849965146,28.263327525012716,-43.513140459012696
-7.6438273321875,-244.60247463,5.2387265857991,-2.9940217913020835,0.0008395,3.9956,14,32,390.1186663206352,1230.76,mp-540996,NdGeBO5,https://materialsproject.org/materials/mp-540996,-23.64804713665613,-36.30882634835746,-32.33623283482966,-46.27329238374837
-5.3784337725,-21.51373509,4.2087085683388405,-2.2172799490312505,0.0,2.3491,166,4,104.8426634959408,265.7283,mp-15785,KDyS2,https://materialsproject.org/materials/mp-15785,14.398984747123118,5.530665660804024,-4.316298724013466,-4.2109299002819
-4.840760697777778,-43.56684628,2.9768937896634737,-1.2687378425488889,4.999999400000001,3.6891,12,9,139.88552240832018,250.776605,mp-24129,MnH4(BrO)2,https://materialsproject.org/materials/mp-24129,-23.184817115223865,-1.9225446112017748,-17.520235926131082,-9.620788250058695
-2.294084365,-9.17633746,8.970180921722301,-1.4319640730949998,0.0,1.7916,139,4,81.29938948318333,439.1768064,mp-706,HgF,https://materialsproject.org/materials/mp-706,-24.51067027284159,-60.407615261817845,-20.237951067603298,-67.57812201720033
-3.699433717037037,-199.76942072,5.708730403289327,-0.0908364826436783,0.00010025,0.0,223,54,1394.1398134238596,4792.8824,mp-1209596,Rb4Hg3Ge20,https://materialsproject.org/materials/mp-1209596,15.223010350926385,21.30162501706513,15.55258799805395,-46.626711857077034
-3.7658421728571434,-52.72179042,5.175092586829645,-0.4962293696726187,0.0,0.14290000000000005,111,14,407.28716186851545,1269.316,mp-1212167,In5CuSe8,https://materialsproject.org/materials/mp-1212167,15.08279461624632,14.792594192098827,5.882270325470546,-16.829692952747386
-3.614178054285714,-25.29924638,4.968849804740418,-0.6235967256250002,0.0,1.3457,82,7,189.71856031782937,567.6969999999999,mp-3772,Cd(GaSe2)2,https://materialsproject.org/materials/mp-3772,13.543846058832017,14.989354022358912,-16.47174525563003,-73.15830057067213
-6.596649754642858,-184.70619313,3.4241153083921536,-2.483115863392858,7e-07,1.5336999999999996,62,28,671.4669790769307,1384.5988,mp-18642,Ca(YS2)2,https://materialsproject.org/materials/mp-18642,17.272271423416022,5.299781279829358,-2.922596472776087,-16.485539234209
-4.850657545,-58.20789054,4.213509409181045,-1.3828574946991743,0.0,1.3735,63,12,468.12231250691804,1187.8298075999999,mp-9856,Cs2ZrSe3,https://materialsproject.org/materials/mp-9856,-6.6481259112284565,-7.343106853323588,-22.649159248157076,-32.614878394752694
-4.232116366666666,-76.1780946,2.7194120428131145,-1.2958394451111108,0.9999995,0.6331,2,18,238.03973911884705,389.83012,mp-753954,CdCuH8(ClO)4,https://materialsproject.org/materials/mp-753954,-26.96040721376577,-2.744773933413058,-34.279385044088244,-33.68696337121143
-7.7606300776,-194.01575194,6.0772271754364064,-3.3335990314000004,4.9999997,0.0,2,25,416.4606431090628,1524.15925,mp-557002,Pr9O16,https://materialsproject.org/materials/mp-557002,-23.878633461609553,-66.84215479871014,-16.066409021439437,-66.83359597409721
-5.756868466842105,-437.52200348,3.1715252206400946,-1.8506787810888168,1.025e-06,1.5806,130,76,2144.478929743503,4095.82,mp-560785,K2Y4Sn2S11,https://materialsproject.org/materials/mp-560785,-4.037882580961592,1.2638998720360055,-32.736785039868586,-35.16180517057965
-2.969519538,-29.69519538,4.615208371217029,-0.24723430450000025,0.0,0.0253000000000001,8,10,204.66286444433186,568.8284000000001,mp-1222179,Mg3Zn3As4,https://materialsproject.org/materials/mp-1222179,35.44469721068084,20.403288750546906,53.75420974202651,-4.378560225173027
-2.5591490665,-102.36596266,6.212422799834665,-0.13253589449999978,5.69375e-05,0.6923999999999997,61,40,1502.6200795637405,5621.6150400000015,mp-669496,PtI4,https://materialsproject.org/materials/mp-669496,-0.5374171451430027,4.688900885683652,-35.18438804788581,-31.519276576127663
-4.110602105227273,-180.86649263,5.909598474031029,-0.4159241984090914,2.25e-07,0.0,62,44,1530.0970912345545,5445.376,mp-29087,Ba2(SnSb2)3,https://materialsproject.org/materials/mp-29087,7.256447471255862,-30.793288856763763,-0.7169759673237419,-31.21580306217465
-6.089485304285715,-85.25279426,3.1574712191279497,-1.6482506594642865,3.99999985,0.0,74,14,311.76755561160695,592.8177900000001,mp-1246677,YMgMnS4,https://materialsproject.org/materials/mp-1246677,1.957521008423699,26.213859753106373,-22.194074546140765,-79.7316503477444
-8.723991243333334,-52.34394746,9.218002855113953,-3.1296825128566668,0.0,2.3044,166,6,95.49021120871643,530.0863264,mp-8226,ThNF,https://materialsproject.org/materials/mp-8226,-24.080139238000502,-60.38277205915069,-16.189151479459955,-66.36879909374527
-4.8632835295,-97.26567059,4.043168578988752,-1.15524006065625,9.77e-05,0.0,12,20,575.1326096001511,1400.3634,mp-1232305,YMgSe3,https://materialsproject.org/materials/mp-1232305,15.800271647823322,1.517787648471402,-12.669322999798567,-5.924623755263433