energy_per_atom,energy,density,formation_energy_per_atom,total_magnetization,band_gap,sgr,num_sites,cell_volume,weight,mp_id,formula,URL,tsne_cry_0,tsne_cry_1,tsne_xrd_0,tsne_xrd_1
-6.273838382999999,-250.95353532,7.2498864197873925,-2.3848397334375,1.375e-07,2.0515,122,40,817.4634232660268,3569.032,mp-32642,Lu2S3,https://materialsproject.org/materials/mp-32642,15.033048769152598,-4.157582606196205,9.286987499834662,-10.020040679092258
-5.165761618333334,-61.98913942,9.325603462510509,-0.6162303996875007,0.010239225,0.0,198,12,248.51025168998038,1395.636,mp-1102850,SbPtS,https://materialsproject.org/materials/mp-1102850,26.74053386943375,26.30139149080349,38.941618976821395,-24.96321266988628
-4.888284043461538,-127.09538513,2.8084205508589606,0.3990694895769227,1.00000055,0.17079999999999995,18,26,747.8904549989818,1264.885,mp-1193058,KSbC6Br5,https://materialsproject.org/materials/mp-1193058,-3.7101765390564734,4.0634725502939215,-32.43900381758703,-39.47280471201547
-7.175870607638888,-516.66268375,3.802609113330984,-2.7342078947354516,0.04768345,3.7001,14,72,992.1429263304852,2271.992192,mp-541041,NdAg(PO3)4,https://materialsproject.org/materials/mp-541041,-34.973362036433144,-24.416237440633548,-32.68071094309117,-27.183510711333827
-2.5967707014285715,-36.35478982,3.672214159315117,-1.2762067965270936,5e-08,3.1689,40,14,630.3200834247907,1393.9270800000002,mp-1103709,Rb2Cd(IBr)2,https://materialsproject.org/materials/mp-1103709,-4.6979475616278235,-7.989132618009845,-24.028440239136142,-4.545342125800978
-4.746748648181818,-104.42847026,6.441144741640347,-1.1198674390159675,0.0,1.2065,63,22,534.2655416904819,2072.3883038,mp-6182,CsTb2Cu3Se5,https://materialsproject.org/materials/mp-6182,31.933956114534546,-3.566489716954962,3.0082906432281424,-21.312954867417236
-5.87521489,-35.25128934,6.898917801888858,0.08858387666666682,2.75150755,0.0,58,6,142.25883974561648,591.0322,mp-22498,CrSb2,https://materialsproject.org/materials/mp-22498,32.454251423433426,-7.501132627364565,21.589146654109197,-41.110577335352595
-4.678398158,-46.78398158,4.3440355533341375,-0.5125384356250002,0.99999985,0.06359999999999966,12,10,316.4164423913748,827.75788,mp-1205799,Mo(SI)2,https://materialsproject.org/materials/mp-1205799,-0.8931739557407619,-7.403261733766087,-36.67808835141259,-37.80584502881352
-3.973398428571429,-166.882734,3.264605213547781,-0.5407262895238102,4.00000295,0.4865999999999999,15,42,878.9294484207645,1727.9676,mp-1199745,Ca2Cd(BrO2)6,https://materialsproject.org/materials/mp-1199745,-2.0646437976043868,-6.554816053859399,-17.192587404462664,-5.4757829728498475
-3.485571551818182,-76.68257414,6.903157388393669,-1.5952365719275,1.99999905,0.0,227,22,324.41589908023377,1348.6548384000002,mp-6820,Cu2Hg2SF6,https://materialsproject.org/materials/mp-6820,-19.93557568448821,-75.59632920428618,-3.2691184897471306,-77.753733017931
-3.364921832580645,-208.62515362,4.2442811815955315,0.5958957876559545,15.0837035,0.0,219,62,1741.1562412882763,4450.335999999999,mp-1202600,Zn5Ag4Sn3Se13N6,https://materialsproject.org/materials/mp-1202600,-5.776950395138294,-0.5789773847512184,18.204842442483915,-48.546591083326064
-3.127299304375,-150.11036661,4.378035995212056,-0.5404936416840279,1.875e-08,1.4358,88,48,1946.0991603029006,5130.91952,mp-505357,InSeI,https://materialsproject.org/materials/mp-505357,17.235656779521758,13.237483035785253,-12.492745941221738,-13.414114403239967
-4.548795355555557,-81.87831640000002,4.178013711616879,-1.3040254942959777,0.0,1.6088,132,18,522.7813657136529,1315.3486076,mp-10488,Cs2Ti(AgS2)2,https://materialsproject.org/materials/mp-10488,-7.589467812967956,-11.376843755959902,-26.33637721806901,-33.54779779605318
-7.185992455,-86.23190946,5.802220229690486,-2.796461794166666,0.0,3.7516,88,12,160.16744986255404,559.6537,mp-754109,PrAsO4,https://materialsproject.org/materials/mp-754109,-20.339069984529,-65.87845930446079,-10.236400195715373,-64.73875116285473
-2.9095235895,-58.19047179,4.354763847155101,-0.9331782567413788,0.0,0.3785,20,20,665.263573522375,1744.6538075999997,mp-27336,CsCuBr3,https://materialsproject.org/materials/mp-27336,-8.520841080983159,-4.869595647935687,-14.698329310198163,-52.25190315790015
-3.84535748,-30.76285984,4.999515551115703,-0.642042437330729,0.0,0.6284000000000001,24,8,191.72196296879025,577.2324,mp-1224845,GaAgSeS,https://materialsproject.org/materials/mp-1224845,13.570706421807705,15.1244522905267,-16.47810502258545,-72.63171659954584
-4.724009925882354,-240.92450622,4.938376773675591,-2.666392641969804,7.0000005000000005,0.2531,2,51,729.3015605961908,2168.9137088,mp-15387,Ba6Cu11F34,https://materialsproject.org/materials/mp-15387,-14.294881628942376,-20.799625753643767,-12.822875400673214,-18.494203720102
-6.307869178571429,-88.3101685,2.845485413647164,-1.785837229226191,1.9866266,0.0,141,14,308.2088302177138,528.144,mvc-11255,Ca(TiS2)2,https://materialsproject.org/materials/mvc-11255,2.764298710701501,27.945835296190552,-19.227748184673022,-80.81469993869209
-4.739391429545455,-104.26661145,6.534728293714175,-1.116514000379604,0.0,1.4763999999999995,63,22,530.2477642949085,2086.6869038,mp-18672,CsDy2Cu3Se5,https://materialsproject.org/materials/mp-18672,31.931139760209852,-3.5602689170000232,2.9903569409367696,-21.31885289521666
-5.908218838571429,-82.71506374,3.7159113385733016,-1.7285669026785726,2.0,0.0,74,14,316.26650081687274,707.7330000000001,mp-1247075,SmMgVS4,https://materialsproject.org/materials/mp-1247075,12.220367764092483,8.04688380060937,-23.532095332482015,-79.48159807912664
-6.267217187666667,-188.01651563,5.651001553673979,-2.6678302675833327,3.9e-05,2.8191,194,30,550.5680669448467,1873.6452,mp-801028,Ba4Sb2O9,https://materialsproject.org/materials/mp-801028,-15.701785904588847,-79.9508591668947,-19.060899747329227,-55.60085190536128
-3.980204594285714,-55.72286432,5.334479748423894,-1.4330497058928573,2.985e-05,0.0,227,14,365.2925826729063,1173.502,mp-2959,Yb2CdS4,https://materialsproject.org/materials/mp-2959,10.628941655424883,12.289102814168618,-21.067137059832014,-74.84981564380726
-7.7125765015,-154.25153003,6.273013891363491,-3.438556085250001,0.0,3.6286,36,20,311.5349373957647,1176.8847,mp-753821,Pr3GaO6,https://materialsproject.org/materials/mp-753821,-10.934916338039955,-62.45480034599373,-6.730801987251764,-61.74104522165287
-4.678135134285714,-65.49389188,5.675046242490269,-1.9756144687500008,0.000132,0.0,122,14,301.04113178252555,1028.836,mp-675650,Ca(YbS2)2,https://materialsproject.org/materials/mp-675650,18.91338376010519,-3.8635528276808815,7.483130711709047,-8.664153537945616
-5.9314414950000005,-71.17729794,3.8932663027279832,-3.43311520246,4.00000015,2.4223,72,12,183.92183717652185,431.2194256,mp-566608,SrCrF4,https://materialsproject.org/materials/mp-566608,13.145954056353789,14.07610939764418,-16.408245140050767,-71.92559831758679
-3.7823615910000004,-75.64723182,2.275942146855792,0.1145626919999998,0.001004525,0.0,8,20,387.7603139657303,531.466,mp-1073100,Mg2Si3,https://materialsproject.org/materials/mp-1073100,35.29707795161939,20.68217718016447,54.930196734948225,-1.3269589606870211
-5.19096623875,-83.05545982,3.8324598982786466,-0.9222820806330816,0.470069125,0.0,70,16,510.1113188272549,1177.3172,mp-12024,RbVSe2,https://materialsproject.org/materials/mp-12024,-8.697152520990823,-1.787307371736624,-32.85905222741709,-46.47226942598946
-4.130112922857143,-115.64316184,5.696490797164646,-0.2397377152380957,4.950409575,0.0932000000000004,62,28,926.9464198318527,3179.89618,mp-651582,Mn(InTe2)2,https://materialsproject.org/materials/mp-651582,14.401475642270567,3.2145593694818833,-4.174854640822889,-13.895998382056526
-8.178308271999999,-40.89154136,6.7767787508281705,-3.7289865752499995,0.0,3.7756,164,5,80.81541582010641,329.8135,mp-2063,Pr2O3,https://materialsproject.org/materials/mp-2063,2.5965355407067863,-59.93876850141829,-3.3751273353487004,-86.71379087404394
-3.786805343,-75.73610686,2.2826904606447243,0.11011893999999957,0.000740025,0.0,8,20,386.61397883240835,531.466,mp-1073176,Mg2Si3,https://materialsproject.org/materials/mp-1073176,35.283988474896596,20.472263565958976,54.874556628727824,-1.1845316187835475
-7.015655170588236,-238.53227579999998,3.9823716986516025,-3.131308237352941,1.3e-06,3.784,6,34,465.30085178399673,1115.90326928,mp-1223494,KNaSr8(BO3)6,https://materialsproject.org/materials/mp-1223494,-18.229202639789303,-31.73938634892459,-1.2580136389821233,-23.43708329907651
-2.855219558,-28.55219558,4.620755721091191,-1.1127984569080458,1e-07,0.0644,225,10,331.6316345173769,922.8261037999998,mp-1113553,Cs2GaAgBr6,https://materialsproject.org/materials/mp-1113553,0.5093510984496489,14.453377439881509,-28.578201376684408,-71.69892353994638
-6.271030835714287,-175.5888634,4.8067109363393445,-1.0885623518452383,2.99999995,0.0017999999999998015,1,28,644.7912279596006,1866.4572,mp-1239241,HfCrAgS4,https://materialsproject.org/materials/mp-1239241,-6.999306847616618,-1.7060381189747933,-33.7537021852646,-47.51093763223428
-4.116436075,-32.9314886,3.646741335015724,-0.29299671687499984,0.0,0.8947999999999999,1,8,159.78077694939986,350.8975999999999,mp-997023,CuBrO2,https://materialsproject.org/materials/mp-997023,-8.515325962663956,4.83684430426454,-37.117475075439465,-46.49728851641746
-6.1804204585714295,-86.52588642,5.050484898764144,-1.4464226969642868,2.7832895,0.0,74,14,320.08502233256434,973.53,mp-1246973,SmMgWS4,https://materialsproject.org/materials/mp-1246973,1.7427927887833738,25.135257695997527,-23.14258413270696,-79.5374232133927
-3.048120701666667,-109.73234526,4.157624212324288,-0.3985881828927206,0.00047835,0.8105000000000002,62,36,1465.5882053544808,3669.5102380000003,mp-616140,Cs5SiAs3,https://materialsproject.org/materials/mp-616140,-5.080111781499825,-24.372755019356124,-27.759129141008984,-56.757239125343894
-3.209690911785714,-89.87134553,4.250164966380697,-0.8188106608743843,0.0,1.1911,15,28,1334.8752211957606,3416.6254228,mp-1193606,Cs3GeTe3,https://materialsproject.org/materials/mp-1193606,-6.7549303947358075,-13.156490075122822,-40.84289758263483,-14.247062627151161
-2.8763819922222225,-25.88743793,4.266311242065152,-1.0160474658237548,0.0,0.8915,225,9,331.48219530340293,851.6549037999998,mp-1205847,Cs2PdBr6,https://materialsproject.org/materials/mp-1205847,-1.3240075739120107,14.287690021387775,-28.078601106148547,-70.0573080210755
-6.363777062916667,-152.73064951,3.9414232850107167,-1.932156907786459,2.0000001,0.2939000000000007,173,24,486.05678998704667,1153.6949772,mp-1190741,Y3AlNiS7,https://materialsproject.org/materials/mp-1190741,13.894491823213567,-15.083304246466,-1.3321604137557406,-17.797003463150553
-4.007356728214286,-112.20598839,3.430512368305008,-0.9649714212410712,7.025e-06,1.3192000000000004,14,28,634.0676385758552,1309.92215424,mp-555871,Na2CuSbS3,https://materialsproject.org/materials/mp-555871,-6.769665141419813,-0.16401711911472078,-32.4322575176042,-38.41034625042675
-5.583043900000001,-89.32870240000001,6.096142150582497,-1.7064669970312505,0.0,1.6602999999999994,62,16,323.17673781313374,1186.44084,mp-12455,TmCuS2,https://materialsproject.org/materials/mp-12455,16.188712187676042,-12.99213226292018,-10.345347208638454,-16.74793436046427
-7.685753787205884,-522.63125753,6.068214351261236,-3.2626563852205877,4.00000005,0.0,14,68,1118.0487283134557,4085.7572,mp-559771,Pr6O11,https://materialsproject.org/materials/mp-559771,-23.89613935669259,-66.97780219612714,-16.042557289312292,-67.03122823330689
-4.152084425,-58.12918195,2.4261429995254917,-1.92503666624381,1.9999999,0.02510000000000012,55,14,322.586264259576,471.31707712,mp-29392,Na2TiCl4,https://materialsproject.org/materials/mp-29392,-17.585173849994952,14.14502700162325,-9.017290120863793,-21.573713979330627
-5.960293120833334,-286.09406980000006,4.041446306835292,-2.058022603557292,0.0,3.4912,14,48,762.4553217779362,1855.67588,mp-1211641,KLa(SeO4)2,https://materialsproject.org/materials/mp-1211641,-29.803123862016513,-52.72611252167443,-27.722419184270603,-52.10760638219674
-4.186396601071428,-117.21910483,3.6745417736546018,-1.1912929186309529,0.000611875,1.5138000000000005,2,28,690.8721911149472,1528.8039999999999,mp-1232207,Mg(InS2)2,https://materialsproject.org/materials/mp-1232207,-1.8768156636286797,8.808427477321334,-31.594526388140768,-36.027660422131675
-4.298367713571428,-421.24003593,4.175215240770556,-0.3992791834881629,0.0,0.685,14,98,1734.875284982106,4362.12432,mp-1203875,Zn2Te15(H3N)8,https://materialsproject.org/materials/mp-1203875,-1.501206412771009,-6.406205436520223,-17.210439290364498,-4.817760960184078
-9.427349487142855,-131.98289282,6.511740091264076,-2.2158448720833337,35.0000001,1.1315,82,14,293.42074856129915,1150.6382,mp-676156,Gd5AgS8,https://materialsproject.org/materials/mp-676156,16.45918181199181,-4.312678330100326,9.772697324737397,-9.296782928545962
-5.993086171818181,-131.84789578,5.719379519504549,-2.6659934560909093,0.0,2.853,167,22,379.0197672183928,1305.45433856,mp-1190024,Ba3NaSbO6,https://materialsproject.org/materials/mp-1190024,-16.636714071342507,-81.6255384911239,11.14497273145008,-70.62043728145595
-6.18283425,-49.462674,6.999247910075809,-2.0841557190625,0.0,1.196699999999999,129,8,164.19792150346643,692.1017400000001,mp-546790,LaCuTeO,https://materialsproject.org/materials/mp-546790,19.730000693808066,-38.60499283165362,19.98252169198773,-40.88115604885464
-8.095717032,-80.95717032,4.347835654129779,-0.4406401321666678,6.3e-05,0.0,127,10,102.7749437656417,269.0985,mp-1078866,Y(BC)2,https://materialsproject.org/materials/mp-1078866,6.691592161196038,-56.9664282466715,7.462447783842013,-51.204446618920706
-9.526033583636364,-209.57273884,6.303551377944093,-3.1999028459848486,20.9999978,0.3684000000000003,167,22,302.1586886332704,1147.0208,mp-505346,Eu3(BO3)2,https://materialsproject.org/materials/mp-505346,-17.73899994295417,-32.834507497153695,1.8783630203815906,-35.765236084400456
-6.997757203571429,-97.96860085,5.447765372719526,-0.7190547081411641,0.0,0.09289999999999933,176,14,400.8908060780435,1315.2109038,mp-1104663,Cs(MoSe)3,https://materialsproject.org/materials/mp-1104663,31.54697298195495,35.894036708433006,36.8752308705788,-45.66378194298841
-6.255796060909091,-137.62751334,5.728096164358585,-2.4615512633636367,3.00000015,0.5326,167,22,366.4471978843081,1264.07433856,mp-9745,Ba3NaRuO6,https://materialsproject.org/materials/mp-9745,-16.63098627431662,-81.65387757209146,11.10756625654836,-70.58455982908005
-3.665771292,-18.32885646,5.659100680343302,-0.4713283104895837,0.0,0.15280000000000005,164,5,136.8888935790493,466.516,mp-1017565,In2Se3,https://materialsproject.org/materials/mp-1017565,23.831197661672586,4.795158906427772,10.135509687443664,1.1676157595996246
-4.20024182,-16.80096728,6.88133913141488,-1.378654693697917,0.0016581,0.0,123,4,83.26132318863394,345.0382,mp-1215421,YbAgS2,https://materialsproject.org/materials/mp-1215421,22.85098473222157,10.510810238881506,29.119201539797203,-41.15784927489885
-5.8837778950000015,-82.37289053,3.50384841101219,-2.0551407408333344,0.9999735000000001,0.04370000000000029,166,14,364.78152505099325,769.71341,mp-1247309,La3Mg2TiS8,https://materialsproject.org/materials/mp-1247309,14.09358185176042,7.496556921186303,-25.83036588951993,-76.67650492301716
-6.001562682142858,-84.02187755,5.326589530956752,-0.5346488002678568,17.0000017,0.488,216,14,313.93166856749286,1007.013445,mp-1221753,MnCr4CdSe8,https://materialsproject.org/materials/mp-1221753,5.934205936699077,26.253204596146585,-3.7425574399850534,-74.20060993046333
-5.74802363625,-137.95256727,5.059548257975915,-2.1315022887500006,0.0,3.6603,14,24,444.58056260021215,1354.6064,mp-1182137,BaO2,https://materialsproject.org/materials/mp-1182137,4.062320112662544,-56.66184200963551,-2.3550912485961444,-13.155042578538165
-2.66349814375,-63.92395545,4.083440264401661,-1.0936787716427203,4.3075e-05,2.5762,62,24,1072.7758986011263,2638.06884,mp-23399,Rb2AgI3,https://materialsproject.org/materials/mp-23399,-4.331429465797386,-8.532946594922773,-23.93188974533073,-4.992780477460093
-6.3010524016071425,-352.85893449,5.23676880196186,-1.8559856884821442,5.9982157,0.3037000000000003,176,56,960.1901921393054,3028.1095,mp-1210531,Pr7(BrO6)3,https://materialsproject.org/materials/mp-1210531,-14.20907382060885,-27.81540731501189,-17.4760549481092,-16.72575507103501
-3.9032750242857146,-54.64585034,3.611159800335068,-1.443905133887094,4.0000003,0.7155,64,14,503.6546019151222,1095.29328,mp-1209504,Rb2Cr(ICl)2,https://materialsproject.org/materials/mp-1209504,-5.212371251820481,13.467774424792724,-2.174702946716401,-35.393390457047204
-7.420812459666665,-222.62437379,3.5311957291653067,-3.4630892399166657,0.0,4.6095000000000015,15,30,461.88838969858597,982.2222,mp-3978,SrSiO3,https://materialsproject.org/materials/mp-3978,-20.863559830247734,-30.56556520091966,-11.57764205196569,-20.95093464824091
-6.472494769583334,-155.33987447,5.2122160268211335,-2.076408932786459,3.9999977999999996,0.0,173,24,559.3676228756086,1755.7822,mp-1209456,Sm4CrS7,https://materialsproject.org/materials/mp-1209456,9.136458035355519,-7.0231909647340505,-7.694789456706522,-10.488506197900133
-5.999904282916668,-143.99770279,4.289116371583677,-4.046716551293334,2.5175e-05,6.193199999999999,62,24,393.3421559662581,1015.9895312000001,mp-1211260,KLaF4,https://materialsproject.org/materials/mp-1211260,-13.021569086780708,-27.446722916009726,-38.115453575012175,-49.592500607067116
-5.6070262975,-89.71242076,5.9991872483904825,-1.7081411632812502,0.0,1.6292999999999995,62,16,326.54495449782445,1179.7399999999998,mp-12454,ErCuS2,https://materialsproject.org/materials/mp-12454,16.187548251192716,-12.987375643737536,-10.38204458088381,-16.728503215908482
-8.134667891,-162.69335782,5.0524851719579855,-2.2012306604375,32.9999999,0.0,189,20,466.1262616682181,1418.2720000000002,mp-1189832,Eu5(ZrS4)3,https://materialsproject.org/materials/mp-1189832,12.084890989805274,-6.5555578180655445,-7.472402878528251,-12.884497263949086
-5.46610589,-21.86442356,4.747563010355945,-2.10554248453125,1e-07,0.2898000000000001,123,4,81.69533785350663,233.571,mp-1222313,LiDyS2,https://materialsproject.org/materials/mp-1222313,13.403390133978442,9.41650916221369,-27.18789737295832,-77.5588477809367
-7.8579219433333325,-47.14753166,6.2259355925779625,-3.99749242498,1.0000001,0.0,129,6,93.41031635570542,350.22760639999996,mp-1178454,CeOF,https://materialsproject.org/materials/mp-1178454,-12.636374976483262,-33.68585863612091,-15.48780103606031,-66.79520670627154
-5.269038120833334,-126.4569149,4.675446683751619,-3.1424649613825,5.99999995,2.6528,11,24,398.46445341454665,1121.9244248,mp-556007,Ba2Co2ClF7,https://materialsproject.org/materials/mp-556007,-12.926707913565922,-22.080204455746934,-14.248428292688446,-19.263184634355344
-6.377727594375,-102.04364151,2.7221208859883266,-2.7923096308275004,3e-06,4.3495,4,16,210.17188829444237,344.53468,mp-995190,KCaSiHO4,https://materialsproject.org/materials/mp-995190,-16.955701743348676,30.085044808173233,-13.230344788894374,18.37616662969704
-3.40414016875,-272.3312135,4.096681782858706,-0.4508168429366918,0.0,1.0369000000000002,57,80,2989.156735897498,7374.487230399999,mp-1202488,Cs4TeSe15,https://materialsproject.org/materials/mp-1202488,-7.849927635165808,-6.136683336811112,-29.69981046951975,-47.62454356206115
-5.432638675,-43.4611094,2.7276315482946765,-3.4853531551618526,1e-07,7.0819,1,8,120.83403637065581,198.48418,mp-696736,RbBe2F5,https://materialsproject.org/materials/mp-696736,-30.06598847279196,-18.341284660929283,-16.220925769971267,-10.555502813542429
-5.916259133541666,-283.98043841,4.2028304501435185,-2.027446612932291,2.7925e-05,3.4156,14,48,741.6117178442073,1877.0220000000002,mp-1211600,KNd(SeO4)2,https://materialsproject.org/materials/mp-1211600,-29.81184875565188,-52.79251459254419,-27.685287458481458,-52.08599688131504