energy_per_atom,energy,density,formation_energy_per_atom,total_magnetization,band_gap,sgr,num_sites,cell_volume,weight,mp_id,formula,URL,tsne_cry_0,tsne_cry_1,tsne_xrd_0,tsne_xrd_1
-6.525845565208333,-313.24058713,2.302981351106685,0.1526810281249998,2.6875e-06,0.0,134,48,374.1672517387232,518.928,mp-570316,B,https://materialsproject.org/materials/mp-570316,5.772234217555332,58.107385335767596,1.0793441407931912,54.679071059212504
-8.214648804166666,-98.57578565,12.019647312261846,-0.4694819900000009,0.12518995,0.0,194,12,156.40511388557812,1132.12292,mp-1218039,Ta2SiNi3,https://materialsproject.org/materials/mp-1218039,69.74492143666865,50.25285253199917,72.11589965105097,19.09983626585057
-8.449711652222222,-76.04740487,7.410071976340669,-0.15900034301555385,3.0011334,0.0,162,9,84.50293528143679,377.0901,mp-248,Fe2N,https://materialsproject.org/materials/mp-248,48.45179325010539,62.84862818458538,90.08035630502968,11.522673036041727
-6.9325376285,-138.65075257,6.168746533573402,-0.03611808745200022,6.670000000000001e-05,0.0,59,20,201.8881605563139,749.99555,mp-1247554,MgCo5N4,https://materialsproject.org/materials/mp-1247554,25.260637975355845,53.47424909254796,60.52045964299215,7.534895060198347
-4.940801753333333,-59.28962104,11.371820138596073,-0.1516205655555556,6.08e-05,0.0,70,12,246.39973798516368,1687.412,mp-22812,In2Ir,https://materialsproject.org/materials/mp-22812,52.596019623409006,16.950212857194828,49.59875941897541,5.2782364790276555
-9.344725148888891,-84.10252634,16.58233551292146,-0.7939993874074074,2.9299999999999997e-05,0.0,225,9,134.84331616008296,1346.561,mp-1078623,Zr2BIr6,https://materialsproject.org/materials/mp-1078623,63.75818801432478,54.332767282323616,56.9810742938906,36.981732815912956
-6.320552237857143,-88.48773133,4.350658277760268,-1.8165484001371428,5.000000599999999,0.0,74,14,141.07472235403344,369.61967999999996,mp-753984,LiMnCoO4,https://materialsproject.org/materials/mp-753984,0.6392148417086461,68.26838953922875,17.23193582218626,82.52865486881616
-5.801258505625,-185.64027218,4.2522960515786865,-1.8659095422475,16.0000002,0.4643999999999999,1,32,282.33503595404056,723.001465,mp-1175725,Li9Mn2Co5O16,https://materialsproject.org/materials/mp-1175725,18.769954872081076,88.69924532090435,10.524547231085656,90.74962134586302
-5.854056875,-35.12434125,10.522472453124992,-0.479415490000001,1.7e-06,0.0,227,6,89.83923988922554,569.2916,mp-1939,ErNi2,https://materialsproject.org/materials/mp-1939,80.03498361952084,29.415420484157163,71.34637882476677,26.221361958392635
-6.278727415,-50.22981932,10.022449898433267,-0.8617634168750001,0.0017745,0.0,123,8,136.45431374199552,823.591912,mp-1226501,CeScPd6,https://materialsproject.org/materials/mp-1226501,63.51746722512733,53.96037708185914,56.4832381806973,38.13408272163978
-6.132391535357143,-171.70696299,4.490017663881538,-1.7220594408857142,19.000001,0.0,8,28,271.64863015421935,734.524825,mp-756534,Li4Mn5Ni3O16,https://materialsproject.org/materials/mp-756534,-2.7620850370633123,72.27791969907855,2.658206343812499,60.74548829107974
-7.87216320125,-62.97730561,6.387969876000756,-0.09307161812500107,2.8766928,0.0,200,8,117.32500297091856,451.3405386,mp-1228822,AlV6Sn,https://materialsproject.org/materials/mp-1228822,50.22705570108387,41.04981151250286,80.75873668884773,-2.9128114697103373
-5.854916997,-58.54916997,4.300377592711111,-2.00790500325,0.0,3.3812999999999995,148,10,100.28836934278858,259.7216,mp-9657,LiAsO3,https://materialsproject.org/materials/mp-9657,2.763809933671132,75.79756415353823,-46.73402665441367,49.85323664418573
-5.8193250603571425,-162.94110169,4.223762233105777,-1.8788118655150008,7.00000005,0.6107,5,28,245.76436176123931,625.12847,mp-1174780,Li4MnCo2O7,https://materialsproject.org/materials/mp-1174780,9.969256305853204,85.97712225230202,9.80975989595651,94.09593946414054
-7.103208583333332,-106.54812875,2.590681568031408,-0.25482257742844466,0.0065021,0.0,166,15,108.03893697153238,168.5564,mp-534,B13N2,https://materialsproject.org/materials/mp-534,5.821124862019272,57.5816573235444,0.32195332517716024,54.42531803020661
-4.84550127,-19.38200508,3.017274000004775,-0.45128962125,3e-07,0.0,221,4,69.28861666795075,125.90052779999999,mp-2121,ScAl3,https://materialsproject.org/materials/mp-2121,52.444875246249545,30.94025438997593,55.51915699581461,37.449844309121865
-9.983005255,-39.93202102,11.221163152532482,-0.7245582525000014,1.0199999999999999e-05,0.0,225,4,69.82627179815366,471.85400000000004,mp-1184601,HfZrRu2,https://materialsproject.org/materials/mp-1184601,95.8945853839492,4.816488359301365,65.34284003193764,65.00443040839652
-7.324638488965517,-424.82903236,3.11834351209468,-3.3792386697672407,4.5e-07,4.4910000000000005,194,58,630.2499819091291,1183.5529877600004,mp-3405,NaAl11O17,https://materialsproject.org/materials/mp-3405,3.096368144824121,61.83906591925744,8.016698409576039,52.788435642812594
-6.222135118541666,-298.66248569,3.659293623059616,-2.21442805883,5.0000177,0.9975,5,48,418.74453131994085,922.77818,mp-768649,Li4MnCrO6,https://materialsproject.org/materials/mp-768649,-11.10782504295716,99.79857609841999,-12.43290682411364,97.9519282536451
-8.608382265,-34.43352906,10.746873024926817,-0.2957269374999996,1.4e-06,0.0,225,4,70.6971809230852,457.54638,mp-866126,DyNbRu2,https://materialsproject.org/materials/mp-866126,96.1956688130762,4.206792391575467,65.78879732984146,64.4997850992474
-5.9252874735,-118.50574947,4.050551475280018,-1.968248737971,5.00000015,0.6381000000000001,2,20,176.026986814858,429.38248,mp-1173955,Li3MnCoO5,https://materialsproject.org/materials/mp-1173955,5.024954529747126,87.9072868773373,10.50127369102084,91.65508877145287
-9.012747705,-144.20396328,5.4125968025340745,-1.0224550671425003,0.01639705,0.0,194,16,167.3656210755815,545.5352772000001,mp-1188352,AlV4N3,https://materialsproject.org/materials/mp-1188352,29.545806119078325,59.353485930743254,82.88742396235844,21.58804478446312
-6.9829195625,-27.93167825,5.421446565351366,-0.19423031749999972,0.0986647,0.0,166,4,90.56346969377769,295.67809,mp-865373,YCo,https://materialsproject.org/materials/mp-865373,23.079941715035922,5.98777783819737,11.106689186817631,1.7656722349707434
-5.820832850714285,-162.98331982,4.195242071304187,-1.880319655872144,6.9999999000000015,0.3724999999999996,1,28,247.43512097926853,625.12847,mp-1174611,Li4MnCo2O7,https://materialsproject.org/materials/mp-1174611,19.13274359044221,90.59225299567707,10.009324837926547,89.4942290379834
-9.15968070638889,-329.74850543,5.8210994306038,-0.3172165095300004,0.0250178,0.0,62,36,314.95434586482133,1104.0875999999996,mp-1245711,Cr4CN4,https://materialsproject.org/materials/mp-1245711,27.943316440311627,54.72873176186429,59.56190601383521,-4.027565872212613
-4.9186813275,-19.67472531,8.447746772612598,-0.05606062499999975,3.5000000000000004e-06,0.0,139,4,60.378954306653995,307.16900000000004,mp-1183998,Ga3Tc,https://materialsproject.org/materials/mp-1183998,59.84555580118097,56.47118674882979,85.38098398801316,15.044767328708456
-6.091133206,-30.45566603,10.550246927926919,-0.13277857800000065,0.06236950000000001,0.0,166,5,75.01706959657639,476.6215,mp-1216296,VPd4,https://materialsproject.org/materials/mp-1216296,62.94116843419618,60.29493982987722,85.27975876065472,13.23168730487262
-6.127456325,-36.76473795,10.374388053250287,-0.296224751666666,0.05631265,0.0,74,6,89.6749080046286,560.25319,mp-1225312,DyCoNi,https://materialsproject.org/materials/mp-1225312,80.02193152343385,29.40720605833528,71.34617605319781,26.088385309920767
-8.0590286,-32.2361144,3.1115236212083976,-0.4252788611158325,2e-06,0.0,160,4,25.42390583281312,47.6394,mp-1008525,B2CN,https://materialsproject.org/materials/mp-1008525,31.925260865681963,64.42912028406874,86.65581332342346,13.886503628724036
-5.2271643225,-20.90865729,3.676779447697829,-0.14628560250000078,0.3200038,0.0,221,4,59.56355208006461,131.8861158,mp-1008554,Al3V,https://materialsproject.org/materials/mp-1008554,57.76128147687666,55.838164806817595,83.47480345486231,11.556107440843025
-4.21877376375,-33.75019011,7.182330618330451,-0.4680824706249998,1.5e-06,0.0,47,8,135.90823972075313,587.844,mp-1215412,Zr2(ZnGa)3,https://materialsproject.org/materials/mp-1215412,52.533386134021356,31.047795536012174,57.59770746439916,39.016539040665634
-5.7898523053125,-185.27527377,4.24286858304231,-1.854503341935,16.000001,0.3651,3,32,282.96237206310883,723.001465,mp-1176288,Li9Mn2Co5O16,https://materialsproject.org/materials/mp-1176288,19.165268631557453,90.72682717085938,9.997441467555836,89.1864118076003
-5.575916966666667,-16.7277509,8.50153811849305,-0.5354571425000003,8.3e-06,0.0,139,3,69.7460380953257,357.082,mp-1062510,NdPd2,https://materialsproject.org/materials/mp-1062510,25.411458217620464,6.709808371384006,55.71127421557204,32.954603412719145
-7.1742866266666665,-21.52285988,11.20362040141162,-0.10141097333333232,0.0001371,0.0,71,3,45.76567452308505,308.78,mp-1206704,MoPd2,https://materialsproject.org/materials/mp-1206704,66.55643214906483,61.65534577248312,88.94855504854773,17.229173339538814
-8.498975235,-33.99590094,10.776477326259144,-0.5976179799999999,5.31e-05,0.0,225,4,72.16476085810109,468.33099999999996,mp-865434,LuZrRu2,https://materialsproject.org/materials/mp-865434,96.59401695576885,2.6530980624398044,72.49394561883099,55.5460630580081
-5.8025400621875,-185.68128199,4.25425454334737,-1.8671910988099996,16.000000099999998,0.4889999999999999,1,32,282.20505998802986,723.001465,mp-1175604,Li9Mn2Co5O16,https://materialsproject.org/materials/mp-1175604,19.007927114466966,89.16106013111784,10.477864107310767,90.66373618667289
-6.49450164125,-51.95601313,8.710550857818376,-0.29674016500000105,2.3100000000000002e-05,0.0,123,8,128.81250660053664,675.701,mp-1080070,Ti3Pd5,https://materialsproject.org/materials/mp-1080070,65.42534811349262,36.03269544056258,75.09065734388194,7.3057502674619075
-6.187298137999999,-92.80947207,4.368932603951882,-1.8563630461279996,11.000000300000002,0.0,2,15,143.12276401410787,376.56068,mp-778583,Li3Mn2(CoO4)2,https://materialsproject.org/materials/mp-778583,12.718503708255485,77.9300030707829,17.360064292148586,82.50097651951485
-6.3207463875,-25.28298555,10.3095991425303,-0.16733858999999995,0.004954399999999999,0.0,166,4,59.627346797664615,370.2015,mp-1216290,VPd3,https://materialsproject.org/materials/mp-1216290,62.89326810693179,60.29176402131786,85.31578865339456,13.18448796909776
-6.6099727435,-132.19945487,3.528619010194645,-2.6421211023750004,1.9999999,1.6423999999999994,2,20,169.26903350237643,359.694,mp-867696,Li3VSiO5,https://materialsproject.org/materials/mp-867696,4.653105325364553,85.54314633458459,-5.638021265654705,83.29489505348704
-6.510737415,-52.08589932,2.9201547763061675,-2.65056985903,0.0,4.6632,11,8,68.22438273885007,119.97655719999999,mp-625055,AlHO2,https://materialsproject.org/materials/mp-625055,-6.714085079301162,68.81280641816046,-8.377024566926726,63.40349616937351
-8.606781195,-137.70849912,5.1750677295752,-0.5176619830649987,7.0314284,0.0,31,16,159.7474989721353,497.85287000000005,mp-1245396,Mn3SiN4,https://materialsproject.org/materials/mp-1245396,21.983116106804687,52.384787481169894,4.54452910985935,49.714795767172994
-5.98570658625,-95.77130538,3.931191287863772,-2.0142080026199998,7.9999999000000015,0.5960000000000001,10,16,140.02993028404128,331.5094850000001,mp-1174334,Li5Mn2CoO8,https://materialsproject.org/materials/mp-1174334,2.243298221056738,92.28743257076277,-4.871259223641592,94.2280248873456
-10.74376746,-42.97506984,14.452900151958954,1.1116896799999996,8.2925e-05,0.0,221,4,83.15867840670279,723.79152,mp-1217756,Ta,https://materialsproject.org/materials/mp-1217756,23.675932810336533,22.865123477093,59.265616023890686,-28.282236551641894
-6.7296186025,-26.91847441,9.268900062811438,0.1767315724999996,5.742939,0.0,221,4,58.769670322709295,328.0442,mp-974834,EuNi3,https://materialsproject.org/materials/mp-974834,56.746855724812924,56.29646469470178,81.72470393315692,10.590533837963848
-4.95669249375,-39.65353995,10.355189980670136,-0.3404490900000008,9.5e-07,0.0,123,8,126.71372206063229,790.192,mp-1207127,CuSnPd2,https://materialsproject.org/materials/mp-1207127,61.78139625713901,56.41789979580823,82.76641821797355,16.94596554375154
-8.134512499444446,-146.42122499,13.714471588393705,-0.22193435777777876,1.6063011999999999,0.0,2,18,258.317114466182,2133.45344,mp-1217393,U3(CoNi2)2,https://materialsproject.org/materials/mp-1217393,72.24485983495413,50.07087267095254,71.10600268687223,23.02974019586809
-6.92754049,-27.71016196,5.4896336351292385,0.020128092499999358,2e-07,0.0,221,4,62.65913235406319,207.14700000000002,mp-11365,Ti3Cu,https://materialsproject.org/materials/mp-11365,60.082409978716036,54.85383186016908,81.1724705235276,17.648048019015874
-2.093812295,-8.37524918,9.441777200810954,-0.3410465475000002,2.72e-05,0.0,225,4,75.40129064533811,428.729569,mp-867160,LiCd2Au,https://materialsproject.org/materials/mp-867160,87.12213930923242,-2.517895820954402,67.6774074822023,45.63137901682071
-4.585624015,-9.17124803,11.926827920439033,-0.6032232399999993,5.4000000000000005e-05,0.0,187,2,28.12737819257907,202.025,mp-11807,LiPt,https://materialsproject.org/materials/mp-11807,38.131139653145155,39.37665908580958,48.23561459233788,-0.3108204496011587
-9.445625855,-18.89125171,6.388803148276874,-0.014537134374998928,1e-07,0.0,187,2,16.63625999403947,64.0068,mp-1018050,CrC,https://materialsproject.org/materials/mp-1018050,30.91551562988368,55.17979999549776,90.70275177638835,6.3709758706603
-5.804240666333332,-174.12721999,4.368004879195467,-1.7232092240000003,22.9858538,0.0,6,30,288.85948164760674,759.837375,mp-759074,Li6Fe3Co5O16,https://materialsproject.org/materials/mp-759074,10.813097316111648,76.35762792393871,21.393701750061343,83.26511262798515
-8.056116245,-32.22446498,3.112826042571797,-0.42236650611583293,1.8000000000000001e-06,0.0,156,4,25.413268348532014,47.6394,mp-1008526,B2CN,https://materialsproject.org/materials/mp-1008526,31.93943072406171,64.43485221623177,87.6943163088287,13.56500865435723
-7.96020597875,-63.68164783,6.494103184622498,-0.16637079875000094,1.5089535,0.0,200,8,116.1874407136923,454.3905386,mp-1228831,AlV6Sb,https://materialsproject.org/materials/mp-1228831,50.0570059845226,41.09068759224941,80.69666079573359,-2.90630973508044
-4.8253646408333335,-57.90437569,12.695396161973125,-0.238810655833334,0.0028466,0.0,107,12,205.8437275234353,1573.7466,mp-1216602,Tl2Pd9Pb,https://materialsproject.org/materials/mp-1216602,63.70858279729747,54.228574916004746,56.53758715765301,36.571865836539395
-4.228667373333334,-38.05800636,2.6809839384919907,-0.9116048907666664,3.9999998,0.0,164,9,105.34936474758936,170.08931919999995,mp-1078546,Si(NF3)2,https://materialsproject.org/materials/mp-1078546,-25.614771439768013,61.40659136400491,45.507171489658326,63.141731583680325
-5.059246445,-20.23698578,7.391728075166168,-0.3784311962500002,0.0,0.0,123,4,66.91420500002293,297.8620772,mp-1224303,HfAl2Zn,https://materialsproject.org/materials/mp-1224303,46.41725356217107,37.050099819587935,58.31712202171697,33.50192762004727
-7.379066193888888,-132.82319149,3.93406555618784,-2.0453936831370365,14.999998300000001,1.4181000000000004,12,18,217.18763765935554,514.550025,mp-757064,TiMn5O12,https://materialsproject.org/materials/mp-757064,7.073120229942759,70.30065686437578,14.815541789076589,83.91420045732477
-9.35730829,-37.42923316,13.723127864717032,-0.07424342000000017,0.0006089,0.0,187,4,59.180609832210884,489.084,mp-1217428,Tc3Pt,https://materialsproject.org/materials/mp-1217428,62.00035071069122,61.161091580530545,84.94849965128034,12.909861319657535
-6.400093035,-25.60037214,8.827101565984245,0.3298030150000004,8.5e-07,0.0,51,4,77.223631735664,410.50576,mp-978258,MgTa,https://materialsproject.org/materials/mp-978258,49.250713620902125,9.7369231026644,48.904035840232076,5.914306004557508
-4.569795375,-18.2791815,18.952364810282003,0.6895935787499994,1.22e-05,0.0,221,4,68.43981670686092,781.129707,mp-977310,OsAu3,https://materialsproject.org/materials/mp-977310,69.08523425308331,56.81645052977722,56.931496427139905,41.37652847202501
-6.09095694,-24.36382776,4.013224223258117,-0.05932934077381001,1.3e-06,0.0,139,4,58.2535219245459,140.788286,mp-980204,TiP3,https://materialsproject.org/materials/mp-980204,56.04435526202374,52.63668779353885,85.8176773952019,10.7340107137245
-5.51403244,-22.05612976,9.190391370546841,-0.15302027250000005,2.4e-06,0.0,225,4,69.58237124769494,385.1094186,mp-973910,PaAlCu2,https://materialsproject.org/materials/mp-973910,86.52650863988964,1.9679629865674133,57.38028367374505,69.81169757985394
-8.29964421375,-66.39715371,4.8443161183131815,-0.5166473534374996,0.00010490000000000002,0.0,194,8,96.57868221286526,281.7504772,mp-1025497,AlV2C,https://materialsproject.org/materials/mp-1025497,31.13300519629045,58.716385023233826,82.06364743568477,20.305850308090502
-5.833287390714285,-163.33204694,4.2790593104320385,-1.597037463214286,24.9999722,0.0,10,28,289.4767126189413,745.955375,mp-753106,Li4Fe3Co5O16,https://materialsproject.org/materials/mp-753106,11.030038390976584,76.2923065600756,21.26221480717017,82.82015102099477
-3.75907725,-15.036309,8.719396036760504,0.4576247521200001,0.0,0.0,216,4,74.03165328561737,388.736,mp-631398,TeOsCl2,https://materialsproject.org/materials/mp-631398,87.06712951940581,-2.2463901289864263,67.77029373277621,46.13556803020511
-5.88769265625,-47.10154125,19.40822557114675,-0.0755558349999994,0.0,0.0,225,8,122.27458876608372,1429.134,mp-12608,CuPt7,https://materialsproject.org/materials/mp-12608,60.4465268806065,58.090887126907425,82.82881380742214,13.952078163793445
-7.14727146,-28.58908584,7.402434565080596,0.3693009383333328,0.8445634,0.0,221,4,58.479464017834886,260.6927,mp-971703,V3Ag,https://materialsproject.org/materials/mp-971703,56.98546965454111,55.965283559633605,81.81911612705305,10.174642078539232
-6.7366077575,-26.94643103,18.263130858605596,-1.0744415149999993,3.9e-06,0.0,221,4,68.57288899863123,754.18621,mp-2351,TmPt3,https://materialsproject.org/materials/mp-2351,69.09565148636297,56.757122756519315,56.84848630971732,41.402316928454496
-7.0068926399999985,-35.034463200000005,8.820769507175996,-0.5780020276666662,2.6899999999999997e-05,0.0,139,5,57.746210928504475,306.74739,mp-568509,Er(CoB)2,https://materialsproject.org/materials/mp-568509,55.844168288027284,25.342707331653447,49.085830613260214,-1.9144378296275917
-8.727762075,-34.9110483,11.410680718380993,-0.4350005174999989,0.0,0.0,225,4,68.3986859394917,470.01338,mp-865255,LuNbRu2,https://materialsproject.org/materials/mp-865255,96.12005706528221,5.727713401606821,64.47387969823683,64.69162475935006
-6.857330925,-27.429323699999998,4.259454317870608,-0.002110282500000338,1.11e-05,0.0,139,4,59.49591844814418,152.613182,mp-1187475,Ti3Be,https://materialsproject.org/materials/mp-1187475,57.15644229786152,55.59962927618924,81.30190660337807,9.989028599640775
-8.60958465125,-68.87667721,3.30214298963956,-1.2940852607733326,0.0,4.788499999999999,136,8,49.92001843930603,99.2708,mp-13151,BN,https://materialsproject.org/materials/mp-13151,31.87104967140789,64.3123943029434,81.99720652925322,5.991046312232079
-5.360545495,-107.21090990000002,4.030084983440932,-1.6277472363749999,6.59797395,0.0,12,20,180.21321614990603,437.37278,mp-1174281,Li3Co2O5,https://materialsproject.org/materials/mp-1174281,6.582333715849633,95.03717983727606,2.9641804458357357,89.43171866316973
-4.826672393333333,-28.96003436,7.205482834744287,-0.7071461616666674,1.15e-06,0.0,227,6,116.57239981021326,505.836,mp-833,CaPd2,https://materialsproject.org/materials/mp-833,83.26081934032833,13.211074609732306,61.87284681934845,24.622280453106228
-5.396510372000001,-26.98255186,6.086499359432176,-0.2729841733333337,7.020000000000001e-05,0.0,221,5,57.61925114740595,211.1962,mp-1206415,MgNi3B,https://materialsproject.org/materials/mp-1206415,52.770026064747924,62.381256414136935,86.48671453084745,7.915290222152107