energy_per_atom,energy,density,formation_energy_per_atom,total_magnetization,band_gap,sgr,num_sites,cell_volume,weight,mp_id,formula,URL,tsne_cry_0,tsne_cry_1,tsne_xrd_0,tsne_xrd_1
-6.2951051950000005,-188.85315585,5.802769799424097,-2.4251827654375018,1.66e-05,2.5167,185,30,745.2778031802515,2604.3805199999997,mp-1193566,Tm2S3,https://materialsproject.org/materials/mp-1193566,10.865819016923494,-1.7713654002961403,-8.301696967569454,-7.641332413451292
-6.025919526666668,-72.31103432,5.581945432846724,-2.3361661673697927,3.66e-05,1.1614,8,12,267.366652996692,898.76,mp-1225333,Dy4MgS7,https://materialsproject.org/materials/mp-1225333,11.603481407776457,-1.9397631273445075,-5.984235960695624,-17.156106090946984
-6.364809460499999,-127.29618921,6.306199062751298,-2.459193860937501,0.0,1.1633999999999998,11,20,453.65884864629203,1722.852,mp-9092,Er2S3,https://materialsproject.org/materials/mp-9092,9.359391143401512,-3.1422642423279945,-5.4340600600416815,-14.95407991948614
-5.709581663333334,-342.5748998,5.758576675811508,-1.9329130744375007,2.3e-06,2.2783,41,60,1314.675277148601,4559.15712,mp-1200897,Ho4GaSbS9,https://materialsproject.org/materials/mp-1200897,9.483423422796047,-5.326435801631176,-8.169408433743698,-18.317305522293235
-3.6182770111538463,-94.07520229,6.212953955325376,-0.4988357239863778,5e-08,0.3414000000000001,11,26,711.5772820243495,2662.3866,mp-574279,TlIn5Se7,https://materialsproject.org/materials/mp-574279,16.374628235499472,2.3933468213479103,13.29154090150343,4.708490563512248
-4.4339380235000005,-88.67876047,4.953906256555249,-1.10588914565625,0.00020825,0.0,12,20,574.4541391047418,1713.7759999999996,mp-1232145,ErMgSe3,https://materialsproject.org/materials/mp-1232145,-2.8337892267943974,1.5209706889026366,-11.575856387959364,-9.112458883230412
-7.313277072999999,-146.26554146,6.4847594817398715,-2.468524450437501,6.9998186,1.0491999999999997,11,20,447.88383491164086,1749.082,mp-22563,Gd(LuS2)3,https://materialsproject.org/materials/mp-22563,9.453333630720278,-3.1427331853981766,-5.46606820792572,-15.221583708637139
-3.386011085833333,-40.63213303,4.456538039303352,-0.7714872768749998,0.0,1.2312000000000003,205,12,263.1219301397152,706.164,mp-1095440,CdS2,https://materialsproject.org/materials/mp-1095440,12.501703893491086,12.50846941096134,-19.071087163070704,-75.56001638012627
-2.78780952375,-22.30247619,5.3019494205082305,-0.29653170015086205,2.47e-05,9.999999999976694e-05,123,8,193.9630365046836,619.3062518999999,mp-1084778,CsZn4As3,https://materialsproject.org/materials/mp-1084778,16.716035881146407,22.332595584649077,61.079587678385046,-12.237552215368778
-4.1978817275,-50.37458073,5.167032011385508,-1.3653864357480243,3.3e-06,2.0217,63,12,406.5717731453255,1265.1129038,mp-510062,CsSmCdSe3,https://materialsproject.org/materials/mp-510062,10.219732016773136,0.6629599477041095,-3.236300908987217,-19.965108957915557
-7.996660444444443,-143.939888,4.292035913639048,-2.2002452685497227,0.0012636,1.2872999999999997,58,18,371.28274439712885,959.6636,mp-1246514,Y4S3N2,https://materialsproject.org/materials/mp-1246514,13.220303094689767,-1.6507051267879804,-6.948501755433145,-21.05104772512824
-8.550683997142857,-59.85478798,5.366641128357696,-2.391621213715714,0.0,3.7834,164,7,111.54757087746077,360.5069,mp-9498,Nd2C(NO)2,https://materialsproject.org/materials/mp-9498,-10.011580463584023,-59.09845547988625,-24.078140418928275,-69.47217662127719
-4.3807261089999985,-87.61452218,4.253169735726748,-0.6511364994375001,0.000354625,1.2906999999999993,31,20,530.5313966052751,1358.86,mp-1189633,Sb2S3,https://materialsproject.org/materials/mp-1189633,0.3609626593982991,-2.4835505403433507,-29.746944315960445,-35.339534749819386
-6.039528595714287,-169.10680068,5.386054141934141,-2.5143071823214287,0.0,1.7955,62,28,678.7583952579547,2201.592,mp-1193662,Sr(ErS2)2,https://materialsproject.org/materials/mp-1193662,9.040127776188102,-2.0239838553761027,-7.640904972807112,-13.582275670213258
-4.286882578181818,-47.15570836,5.430398514607316,-0.8075330440151518,3.0,0.0,8,11,301.8017687724622,986.971,mp-1229084,AgW2(Br3O)2,https://materialsproject.org/materials/mp-1229084,-2.6171802848278363,2.3214849536275235,-1.0047905901387482,-20.079240080930848
-3.3654089966666665,-80.76981592,4.605929033774394,-0.4140031016666666,0.0,0.5982999999999998,14,24,1049.0164274135752,2909.71492,mp-31487,NbI5,https://materialsproject.org/materials/mp-31487,1.3196643066003857,-0.2732088186891029,-30.48344366265593,-32.08419932680396
-6.610769613,-66.10769613,5.924059399065169,-2.4400800814375003,0.9821341999999998,0.0,63,10,230.56594449437492,822.556,mp-1092225,CeLuS3,https://materialsproject.org/materials/mp-1092225,9.049485522380396,-4.536450204056532,-6.911989924167182,-12.72279017037699
-4.296781026666666,-51.56137232,3.79013946849827,-0.3622780899999996,3e-07,0.0,191,12,217.9859869629574,497.5476474,mp-12549,BaAl9Ni2,https://materialsproject.org/materials/mp-12549,16.25368749936141,21.295564645683857,24.47109910387424,-39.868271694768595
-3.9585596515,-79.17119303,4.6168604031149805,-0.22484794408482145,1.1e-06,0.6215999999999999,163,20,545.5405953116152,1516.787448,mp-20902,InAg(PSe3)2,https://materialsproject.org/materials/mp-20902,17.582225585779156,2.1063542939339155,-0.3609930167793867,-16.102333165671887
-6.015974349166666,-72.19169219,5.713553433208487,-2.3353483615364588,4.09e-05,1.1751,8,12,264.0333463551811,908.4812800000001,mp-1223962,Ho4MgS7,https://materialsproject.org/materials/mp-1223962,11.61023779164966,-2.0496629833659936,-5.924649870868523,-17.265600006213145
-3.4545678475,-41.45481417,5.0078771680301655,-0.36802595749999983,7.333333333333333e-07,1.0626000000000002,12,12,392.57657565767136,1183.938,mp-542812,GaTe,https://materialsproject.org/materials/mp-542812,17.237468795456646,13.629531124916218,-12.617948067618759,-13.856498910758484
-4.203020124666667,-126.09060374,5.2141473411937,-0.8707741219930564,0.0,1.5710000000000006,11,30,742.5513104060924,2331.6356,mp-27195,In4Bi2S9,https://materialsproject.org/materials/mp-27195,7.2576293941134224,-5.345667986016019,-5.3495495289647454,-11.481248090164806
-3.1141372852499996,-124.56549141,3.4761689396033053,-0.4129313384500005,0.0,1.1041999999999998,62,40,1495.9013762459106,3131.516800000001,mp-30077,K2GaSb2,https://materialsproject.org/materials/mp-30077,-3.829829709206195,-7.3587159339234125,-31.65978222058387,-33.919004463359045
-3.62879242,-29.03033936,4.826716753335339,-0.5081135459635417,5.6575e-05,0.6587000000000001,187,8,266.6623715765112,775.112,mp-1079260,InSe,https://materialsproject.org/materials/mp-1079260,15.3554435669614,13.016986156792248,-8.629809257264746,-14.685701397235944
-3.3893951311111112,-30.50455618,4.325906209127639,-0.15274205541666674,0.0,0.8136000000000001,1,9,357.0088709097468,930.05154,mp-1217461,Te4As2I2O,https://materialsproject.org/materials/mp-1217461,-2.8145906515802745,-5.955066156058144,-31.91480516081809,-31.6504292945445
-2.675492371666667,-32.10590846,4.677352673503992,-0.1483577667528738,1.6666666666666665e-07,0.1896,119,12,313.80309108965525,883.9104,mp-31493,RbGa3,https://materialsproject.org/materials/mp-31493,20.07963755909707,10.617721252893348,27.187446851710725,-41.46208313352728
-7.146307541666666,-42.87784525,4.685387146559751,-3.3621899350841677,0.0,1.3132,129,6,99.21246721688844,279.9385064,mp-10086,YSF,https://materialsproject.org/materials/mp-10086,19.805519833730873,8.861544158123644,4.44510522881446,-10.330284168448024
-3.93011676225,-157.20467049,3.8264267102132763,-0.3637093774413799,0.0,1.4350999999999998,14,40,1411.6946037387397,3253.00749232,mp-1197430,Cs2NaAs7,https://materialsproject.org/materials/mp-1197430,-6.4015277997460975,-2.8293091727856163,-32.26030470709141,-46.84862543639747
-4.367226141875,-69.87561827,4.898485525737236,-0.5783572514062509,0.0,0.7582000000000004,62,16,338.2255301604485,997.744,mp-4468,CuSbS2,https://materialsproject.org/materials/mp-4468,-2.390057065324084,-3.9681871332220617,-0.5753329573310111,-58.68594590409828
-6.635136420714286,-371.56763956,5.886109397085407,-1.97382207875,3.9007488875,0.0,29,56,1161.7894703134555,4118.1928,mp-21707,Er2CrS4,https://materialsproject.org/materials/mp-21707,11.697773668734756,-2.1419764371124144,-5.9360420275477015,-17.487234804737618
-5.81715785025,-232.68631401,6.125382320760656,-2.0816877250208337,0.0021812,1.0447999999999995,18,40,861.7543136386269,3178.8320000000003,mp-1199841,Dy3InS6,https://materialsproject.org/materials/mp-1199841,13.18970791240843,-5.24076063582172,-3.4647872377531908,-15.284810886594412
-6.8498818391208784,-623.33924736,3.744776304616102,-2.6770142609340657,14.0000005,0.42610000000000015,146,91,1472.7603189221259,3321.3058,mp-1219532,Sr18Ca3Cr14O56,https://materialsproject.org/materials/mp-1219532,-23.059786148201407,-33.43006787888017,-7.443727070376422,-23.24050999716763
-3.126199435,-12.50479774,6.83438537049592,-0.5735692857812502,0.0079352,0.0,187,4,92.55253210703472,380.9243,mp-998928,TlCdS2,https://materialsproject.org/materials/mp-998928,24.390152729286623,10.751839689746854,28.429496704630623,-39.531163584048436
-2.905933268333333,-34.87119922,3.5997600292190306,-0.6418508374583336,0.81196905,0.0,123,12,379.68997781608266,823.1018799999999,mp-1147602,K2CuI2O,https://materialsproject.org/materials/mp-1147602,-2.1105589296648652,1.1189277375993187,-29.58946408455139,-33.98138846485256
-3.1820046279166667,-76.36811107,5.264637869450902,-0.5293267322710132,1.25e-07,1.0512,14,24,813.3861378114267,2578.7912,mp-6300,RbHgSbSe3,https://materialsproject.org/materials/mp-6300,-3.0585909911232187,2.253933458097911,-35.06262858260642,-39.43514536176332
-2.83018096,-11.32072384,4.031201405156362,-0.07111283060344809,0.02380955,0.0,63,4,169.33723377740944,411.09090380000004,mp-1181521,CsGe,https://materialsproject.org/materials/mp-1181521,-4.9654116742801575,-24.337846171174736,-27.32228652214125,-56.48145502507345
-6.57935629,-92.11098806,5.8247155799821595,-1.9862497480357144,5.00000255,0.1275000000000004,36,14,295.1861571786926,1035.4320899999998,mp-1225595,Er2MnS4,https://materialsproject.org/materials/mp-1225595,11.715368149289432,-2.1404040083499063,-6.169746004581933,-17.336577049058043
-9.40533213875,-75.24265711,5.0507554575306335,-0.821254059765625,23.04342315,0.0,194,8,320.8516647279652,975.914,mp-1184541,Eu3S,https://materialsproject.org/materials/mp-1184541,-6.344364876539147,-25.001650156054158,-24.31049311880129,-69.01104097822719
-4.057530541428571,-56.80542758,4.689856093792542,-0.8930081454166671,4e-06,0.0,216,14,332.28731503117695,938.4782,mp-36751,In5AgS8,https://materialsproject.org/materials/mp-36751,10.676157816233836,13.009341220814795,-20.633512916138123,-75.76837106444475
-5.9099218231818185,-260.03656022,4.5531235398732335,-1.8266558164429858,5.25e-06,1.5151,31,44,1435.8931580687467,3937.1546114,mp-1226222,Cs3Y7Se12,https://materialsproject.org/materials/mp-1226222,15.975591836207053,3.0328521098595997,12.63573158833142,3.4240182318502868
-3.44473138125,-137.78925525,4.38214662601452,-0.7906173923873336,7.105e-05,1.3006000000000002,15,40,1335.9123880532154,3525.46,mp-1203469,In2Te9RuCl8,https://materialsproject.org/materials/mp-1203469,-0.06147161535721723,-0.6322882270938759,-29.692036547452982,-35.50779374406867
-6.28155845,-50.2524676,6.2955396891298125,-1.5015607471875008,0.0,0.8869000000000002,12,8,237.7868579322032,901.5124400000001,mp-29027,TaI2O,https://materialsproject.org/materials/mp-29027,11.92148572714069,0.01539328171558648,-1.9488720918808249,-15.972431015762698
-5.765605571,-57.65605571,6.307676942334943,-0.7213055516666664,0.3600893,0.0,148,10,251.9546883050132,957.068,mp-1217180,Ti2Te3,https://materialsproject.org/materials/mp-1217180,20.32033427602101,10.055185797728775,27.092229823515524,-40.322240845705316
-4.447119896666666,-66.70679845,4.347001980634041,-0.11107115776190428,0.0,1.1474000000000002,160,15,295.6891222136516,774.0626199999998,mp-1227011,Cd3(CuP5)2,https://materialsproject.org/materials/mp-1227011,9.57761619806881,2.772071956304931,13.151656878902564,-51.11864907795282
-8.250172438787878,-544.51138096,5.168864302995503,-3.7252201402326834,0.0,4.062099999999999,8,66,1078.821596582922,3358.115832,mp-779590,La3PO7,https://materialsproject.org/materials/mp-779590,-11.810200790420167,-59.12269878385085,-18.013740824353913,-56.82870708150126
-3.6259731111764713,-184.92462867,5.747714089178665,-0.4691353609272879,2.49e-05,0.0,8,51,1401.6750263033703,4851.694,mp-1225539,In23Se28,https://materialsproject.org/materials/mp-1225539,16.73538239921147,2.6761158881361804,13.17556140792252,4.7836217800842755
-4.420768689,-88.41537378,5.135447778999075,-1.1010282861562497,0.00010435,0.0,12,20,564.1162792742792,1744.6080000000004,mp-1237926,LuMgSe3,https://materialsproject.org/materials/mp-1237926,-3.0050274745719516,1.6948517147502142,-11.587896248908253,-9.141052630435766
-3.9476996575,-15.79079863,3.8874504596802937,-1.1929254239895832,0.0,1.8517,166,4,86.25847532151703,201.93776928,mp-20289,NaInS2,https://materialsproject.org/materials/mp-20289,14.853377792488219,10.12641797089783,28.124986372746033,-43.18807069575025
-4.588208833333334,-27.529253000000004,4.494324011027914,-0.9805259589511492,0.0,1.4572,164,6,131.3638687822228,355.54225190000005,mp-553303,CsCu3O2,https://materialsproject.org/materials/mp-553303,-7.727045382869751,5.837386484203839,-14.924519740109575,-10.357004348088497
-6.955718508157895,-264.31730331,6.0823081578655245,-3.860925850484605,0.0,2.6829000000000005,6,38,625.5415921542917,2291.2660512,mp-1220263,Nd6S3(OF4)2,https://materialsproject.org/materials/mp-1220263,-12.332310015750684,-32.37077854448619,-25.29746423883047,-43.23704675970234
-5.9464811845000005,-118.92962369,6.40764396935387,-0.20635056249999975,6.029666075,0.0,163,20,504.6082187671849,1947.1688,mp-2750,Cr2Te3,https://materialsproject.org/materials/mp-2750,20.54198675318956,9.917128893887512,27.166596806085998,-40.35747194227749
-3.433103164166667,-82.39447594,3.9998169351314767,-0.4656759036111116,4.99999935,0.5914,14,24,802.6237388242732,1933.3168,mp-1212706,FeAgBr4,https://materialsproject.org/materials/mp-1212706,11.504940155750655,2.296735898867705,-32.309048262081475,-32.55234905245224
-3.679874145,-14.71949658,4.900747674827827,-0.55253189953125,5e-07,0.0,156,4,97.18302777569141,286.8162,mp-676113,InAgS2,https://materialsproject.org/materials/mp-676113,7.795810973832348,-37.20792777734314,22.046040787645282,-48.818931271741505
-5.094081356964286,-285.26855599,5.3322913395955,-1.469055537857143,3.580259225,0.0,1,56,1320.8473953925932,4241.48,mp-676750,Yb2FeS4,https://materialsproject.org/materials/mp-676750,12.12130450282269,6.7113760880261095,-23.433005540987587,-78.7156164152809
-1.8393235108333328,-44.14376426,6.148940210253396,-0.3998501158333333,0.0,1.8606,14,24,830.1339250622452,3073.968,mp-570125,Hg2TeBr3,https://materialsproject.org/materials/mp-570125,-2.8384212768083565,1.3812236431856144,-11.234201172066976,-9.066964540974476
-6.03469027625,-48.27752221,5.691611933077112,-2.0757833020982157,0.0,0.6563000000000008,129,8,146.62732741146638,502.57526400000006,mp-7060,LaZnPO,https://materialsproject.org/materials/mp-7060,18.189771418257727,-39.17693487913878,18.581656386626264,-42.105870189835294
-4.8009468175,-134.42651089,2.9410587797882077,-0.6350119026864282,0.0,3.1871,15,28,465.46270218612113,824.40288,mp-695891,CdH6C(BrN)3,https://materialsproject.org/materials/mp-695891,-2.9914425192166836,7.3014490427823295,-34.052629018553475,-32.23524522838523
-3.633567415,-14.53426966,4.9442228254975715,-0.5128885409635418,0.0,0.5364999999999998,160,4,130.16239172462357,387.556,mp-22691,InSe,https://materialsproject.org/materials/mp-22691,15.353672824008465,13.017775897810948,-8.645348283516906,-14.67987047650151
-3.6529566244827585,-211.87148422,5.0898997384343145,-0.3082709454310347,1.12162495,0.0,215,58,1664.4253199664097,5101.812,mp-21827,In9(CuSe4)4,https://materialsproject.org/materials/mp-21827,15.165765050439136,14.582334210791547,6.063622012039996,-16.565685601734813
-1.9569136942857144,-27.39679172,6.872472474269907,-0.5706846137885714,1.6e-06,1.9068,199,14,448.3901035755616,1855.7520000000002,mp-27852,Hg3(TeCl)2,https://materialsproject.org/materials/mp-27852,10.97033805656051,1.6748326854215725,-5.058259188935786,-11.093268861081047
-2.9478612009090908,-64.85294642,4.0844270539039655,-1.0443113943427271,0.0,1.7229,72,22,618.9544687104408,1522.442,mp-1013730,Cd5(S2Cl)2,https://materialsproject.org/materials/mp-1013730,-1.546845621831317,-2.078978456042332,-30.76312925380509,-35.4630793305492
-3.883081877,-77.66163754,3.5360649294057973,-1.686542799,8.525e-05,4.2254,15,20,553.3333394512413,1178.3057,mp-1147619,Li3YBr6,https://materialsproject.org/materials/mp-1147619,1.9956182981696624,12.01503986743374,-31.986806306979783,-70.09156456416056
-2.3202982616666668,-27.84357914,5.433153206067196,-0.4439930549999997,0.0,0.7374,14,12,434.9282051161861,1423.050898,mp-29520,LiAuI4,https://materialsproject.org/materials/mp-29520,-3.095827084929444,0.9656695396173308,-41.17987312943516,-33.864206721910186
-4.12061803,-32.96494424,5.8032656347285805,-0.5439599500000005,2.8999999999999998e-06,0.0,12,8,287.63065412094113,1005.2139999999999,mp-6950,BaSb3,https://materialsproject.org/materials/mp-6950,7.2013684188432965,-30.843517195837286,-1.0884088844139823,-31.353849075101486
-3.877363861666667,-558.34039608,3.682620557637093,-0.6954131116666669,6.999615283333332,0.19099999999999984,205,144,5114.327982710714,11342.178,mp-1196434,K5Fe2Te5,https://materialsproject.org/materials/mp-1196434,-2.543584557230594,-1.7124804345807558,-31.504612138734107,-31.938603277059602
-3.344924831,-33.44924831,4.124796277421819,-0.3393415046000001,0.0,0.19720000000000004,21,10,242.42873349549885,602.1955,mp-1223862,K2Zn3SiAs4,https://materialsproject.org/materials/mp-1223862,15.775357867044306,22.922866395972985,23.95258890084427,-47.42725109114181
-5.22308396,-26.1154198,4.049566126358389,-0.982301745693966,5.000000099999999,0.4781999999999997,119,5,109.92791712677707,268.08184500000004,mp-1219557,RbMnCuS2,https://materialsproject.org/materials/mp-1219557,15.399367707236983,22.611988423818232,24.019791800906443,-40.92714332686345
-4.607040784285714,-128.99714196,5.088885409870705,-0.031432367704081594,0.0,0.5665000000000004,217,28,569.5017987400158,1745.294344,mp-17862,Ag3Ge5P6,https://materialsproject.org/materials/mp-17862,22.083452116633133,-8.420088439564028,4.898444748929199,-20.578173109986103
-3.608393601041667,-173.20289285,4.361186942167532,-0.7549007930607642,0.0,1.0584000000000002,15,48,1529.5323741527343,4017.1152,mp-21705,K2In3AgSe6,https://materialsproject.org/materials/mp-21705,15.421308410696335,13.784785438371182,-11.127055377984483,-14.620837427593749
-8.3693343634375,-267.81869963,6.42971611545895,-3.0284603947691675,0.0,1.0963000000000005,63,32,507.35727037194914,1964.52064,mp-560824,La6B(NO2)3,https://materialsproject.org/materials/mp-560824,-7.656187215742098,-62.478837831679925,-0.521606009293571,-58.69199457245682
-6.401988757027028,-236.87358401,6.180727084121648,-2.4793809021452704,0.0031046999999999997,0.0,12,37,858.0316643293362,3193.6976,mp-1196820,Pr4(LuS2)11,https://materialsproject.org/materials/mp-1196820,9.24844823623574,-3.1290210288085945,-5.4913055710981675,-14.979169794653654
-4.381381804,-87.62763608,4.278225081202035,-0.6517921944375005,1.75e-06,1.2824,62,20,527.4243493660267,1358.86,mp-2809,Sb2S3,https://materialsproject.org/materials/mp-2809,0.34220631683753977,-2.511643078817893,-29.716730524214235,-35.36867586052552
-3.759791223541667,-180.46997873,4.734806997724781,-0.29692444689505554,0.0,1.1454000000000002,14,48,1402.455504283814,3998.9159999999997,mp-570593,RbAg2(AsSe2)3,https://materialsproject.org/materials/mp-570593,-5.3607333625895395,-1.5967792143288317,-30.24252256338271,-38.199206121339394