energy_per_atom,energy,density,formation_energy_per_atom,total_magnetization,band_gap,sgr,mp_id,formula,URL,cell_volume
-6.092630372,-121.8526074,2.130950771,-0.994488259,0,1.1343,82,mp-557954,GaN5O14,https://materialsproject.org/materials/mp-557954,283.4499647
-6.959465495,-97.43251693,2.382616941,-2.537899546,4.0000002,3.4398,146,mp-757732,LiFe(PO3)3,https://materialsproject.org/materials/mp-757732,208.8739795
-6.0933366,-121.866732,2.177092325,-0.995194487,3.00E-06,1.2423,5,mp-541950,GaN5O14,https://materialsproject.org/materials/mp-541950,277.4424923
-3.312838933,-29.8155504,2.384439134,0.555862131,5.9999992,0,12,mp-1079577,Ni(ClO3)2,https://materialsproject.org/materials/mp-1079577,157.1063936
-4.436278773,-17.74511509,3.393236512,-0.32679785,0,0.3283,156,mp-1225675,CuPS2,https://materialsproject.org/materials/mp-1225675,77.638008
-5.181009028,-20.72403611,3.360857571,-0.395649804,1.80E-06,0,139,mp-542915,TiAl3,https://materialsproject.org/materials/mp-542915,63.64349345
-8.453596534,-42.26798267,3.08710694,-1.020728881,2.80E-06,0.5305,38,mp-989613,TiPN3,https://materialsproject.org/materials/mp-989613,65.01043975
-3.904709361,-35.14238425,2.764271618,0.061311703,0.7938967,0,12,mp-1084850,Ni(ClO3)2,https://materialsproject.org/materials/mp-1084850,135.5187496
-6.187337883,-24.74935153,3.612648504,-1.926946929,4.0000003,1.9061,12,mp-1002570,KMnO2,https://materialsproject.org/materials/mp-1002570,57.9315365
-5.159964385,-20.63985754,3.403083486,-0.374605162,2.27E-05,0,221,mp-998981,TiAl3,https://materialsproject.org/materials/mp-998981,62.85379648
-5.143650316,-56.58015348,2.018972344,-0.869985266,4.9999997,1.5349,5,mp-1221677,MnH6(NCl)2,https://materialsproject.org/materials/mp-1221677,131.5167279
-3.754747907,-22.52848744,2.794307466,-1.112377201,0.9999999,1.4636,107,mp-1223374,KNa2NiO2,https://materialsproject.org/materials/mp-1223374,104.4527185
-4.522276675,-45.22276675,3.050154462,-2.965359272,0,5.3519,225,mp-1114330,Na3GaF6,https://materialsproject.org/materials/mp-1114330,137.563372
-7.403584267,-22.2107528,3.660545166,-0.840387519,4.00E-07,0,191,mp-2252,ScB2,https://materialsproject.org/materials/mp-2252,30.20184619
-6.717447206,-94.04426088,2.456851207,-2.446779428,1.9999993,4.9044,146,mp-26841,LiNi(PO3)3,https://materialsproject.org/materials/mp-26841,204.4879886
-4.36983147,-26.21898882,2.397614844,-0.206491536,2.00E-07,0,191,mp-11277,ScBe5,https://materialsproject.org/materials/mp-11277,62.3438112
-4.987743967,-44.8896957,2.155329528,-1.499090845,4.9999998,4.3746,12,mp-504548,MnH4(ClO)2,https://materialsproject.org/materials/mp-504548,124.7136912
-3.982956204,-19.91478102,2.624134098,-0.353671297,3.0236596,0,12,mp-1210569,Mn(HCl)2,https://materialsproject.org/materials/mp-1210569,80.9091263
-6.967731308,-27.87092523,2.508738919,-4.319184443,0,6.0792,221,mp-10694,ScF3,https://materialsproject.org/materials/mp-10694,67.48164041
-6.966133648,-27.86453459,2.497921216,-4.317586783,0,6.0487,155,mp-559092,ScF3,https://materialsproject.org/materials/mp-559092,67.77388194
-5.753584686,-28.76792343,3.809041719,-1.499988885,1.9999968,0,221,mp-1184948,KMnO3,https://materialsproject.org/materials/mp-1184948,61.91948642
-5.242149722,-78.63224583,2.041555309,-0.615834172,5.0000004,1.9012,12,mp-696616,MnH8(N2Cl)2,https://materialsproject.org/materials/mp-696616,154.4868399
-6.671725568,-26.68690227,3.192897629,-4.023178703,0,5.2764,5,mp-1179500,ScF3,https://materialsproject.org/materials/mp-1179500,53.02199985
-5.013457661,-95.25569556,2.815635491,-0.936026652,4.9999998,0.298,5,mp-1222633,Mg4FeClO13,https://materialsproject.org/materials/mp-1222633,233.8444266
-6.06169334,-24.24677336,3.84208367,-3.413146476,0,1.7976,21,mp-695817,ScF3,https://materialsproject.org/materials/mp-695817,44.06302208
-6.037642413,-24.15056965,3.903261234,-3.389095548,0,1.7705,5,mp-634805,ScF3,https://materialsproject.org/materials/mp-634805,43.37240258
-5.36964216,-16.10892648,2.673234724,-1.480658422,5.0000002,1.7964,166,mp-28233,MnCl2,https://materialsproject.org/materials/mp-28233,78.17081973
-6.863279005,-89.22262707,2.850115075,-0.211366992,1.00E-07,0,225,mp-8772,ScB12,https://materialsproject.org/materials/mp-8772,101.7769774
-6.059308277,-18.17792483,2.67309026,0.014710313,3.3699069,0,123,mp-1246694,KMnN,https://materialsproject.org/materials/mp-1246694,67.11696082
-4.551232538,-18.20493015,2.946582954,-0.538295778,9.02E-05,0,225,mp-973053,ScH3,https://materialsproject.org/materials/mp-973053,27.03885122
-5.03775502,-15.11326506,2.856686099,-0.767084894,1.98E-05,0,225,mp-24237,ScH2,https://materialsproject.org/materials/mp-24237,27.30383798
-7.30456822,-14.60913644,2.83338829,0.474437098,1.0000002,0,216,mp-1009751,ScC,https://materialsproject.org/materials/mp-1009751,33.38592297
-7.47088371,-29.88353484,3.156160315,-2.964607685,0,3.9965,166,mp-1101377,ScHO2,https://materialsproject.org/materials/mp-1101377,41.01820389
-3.52951229,-14.11804916,3.716756402,0.039232257,5.03E-05,0,221,mp-983594,Al3Ga,https://materialsproject.org/materials/mp-983594,67.31392404
-7.380276305,-14.76055261,3.95530911,0.398729013,0.2705902,0,221,mp-1009748,ScC,https://materialsproject.org/materials/mp-1009748,23.91602794
-8.943029205,-17.88605841,3.339992294,-1.800524584,0,2.4464,216,mp-1009750,ScN,https://materialsproject.org/materials/mp-1009750,29.31435479
-6.020965439,-72.25158527,2.376717912,-1.327937552,4.9999996,0,150,mp-1213738,CrS2NO8,https://materialsproject.org/materials/mp-1213738,180.3460222
-7.393485173,-73.93485173,3.21014255,-2.613315136,1.0000002,1.3899,5,mp-26252,VP2O7,https://materialsproject.org/materials/mp-26252,116.3281767
-6.162305891,-98.59689426,3.642505033,-2.690469251,4.5501695,0,123,mp-1033034,Mg6AlCrO8,https://materialsproject.org/materials/mp-1033034,160.835162
-5.609519662,-28.04759831,3.235297524,-3.039442896,5.0000013,2.6874,221,mp-555123,KMnF3,https://materialsproject.org/materials/mp-555123,77.51799977
-8.535895135,-17.07179027,4.503339989,-3.256419012,2.02E-05,0,225,mp-644481,ScO,https://materialsproject.org/materials/mp-644481,22.47635655
-6.63775029,-19.91325087,4.066141644,-0.388496396,1.60E-06,0,71,mp-570991,TiSi2,https://materialsproject.org/materials/mp-570991,42.48724608
-6.641970819,-99.62956228,2.819753539,-2.664637074,3.0000005,3.2106,2,mp-753500,Li4V(PO4)2,https://materialsproject.org/materials/mp-753500,158.2056225
-4.475236078,-49.22759686,2.638560728,-0.697507185,3.0000002,2.9949,148,mp-28137,Co(ClO4)2,https://materialsproject.org/materials/mp-28137,162.2642504
-3.504401331,-31.53961198,1.69010348,-0.275943969,0.9999999,0.4404,12,mp-1213770,Co(H3Cl)2,https://materialsproject.org/materials/mp-1213770,133.50981
-3.08719284,-9.26157852,2.95262183,-0.884861432,0.9999998,0.0333,12,mp-30999,CuCl2,https://materialsproject.org/materials/mp-30999,75.61510001
-5.507288529,-93.623905,2.562417964,-1.78017862,1,0.2424,2,mp-555656,CuC2S2(OF)6,https://materialsproject.org/materials/mp-555656,234.3843879
-5.845502944,-350.7301767,1.75561654,-1.527548531,0,4.7108,2,mp-1222377,Mg3ZnH24(CO3)8,https://materialsproject.org/materials/mp-1222377,607.7857646
-4.144775245,-8.28955049,4.98473698,0.075456254,9.50E-06,0,44,mp-971648,GaP,https://materialsproject.org/materials/mp-971648,33.54457922
-7.239670773,-28.95868309,3.448480291,-3.208728532,0,3.99,166,mp-7914,NaScO2,https://materialsproject.org/materials/mp-7914,48.12604365
-4.05055252,-8.10110504,4.839359206,0.169678979,4.20E-06,0,123,mp-971631,GaP,https://materialsproject.org/materials/mp-971631,34.55228211
-4.567048004,-22.83524002,2.928567275,0.807447436,0.1067395,0,65,mp-1069054,Fe(NCl)2,https://materialsproject.org/materials/mp-1069054,87.75360239
-4.563085542,-22.81542771,2.70216316,0.811409898,0.89212,0,65,mp-1097773,Fe(NCl)2,https://materialsproject.org/materials/mp-1097773,95.10614754
-4.126901077,-12.38070323,4.095635955,0.260465183,0.0583464,0,187,mp-1246678,KCuN,https://materialsproject.org/materials/mp-1246678,47.29510671
-3.016950433,-9.0508513,3.130015475,-0.814619026,1.0000001,0,166,mp-1238872,CuCl2,https://materialsproject.org/materials/mp-1238872,71.3296138
-3.52327322,-10.56981966,3.890883459,-0.377925959,0,0,216,mp-1009020,KCuO,https://materialsproject.org/materials/mp-1009020,50.6343862
-2.88699032,-8.66097096,2.530237383,-0.684658912,0.0205104,0,123,mp-1147758,CuCl2,https://materialsproject.org/materials/mp-1147758,88.2378849
-2.89437389,-8.68312167,1.600293278,-0.692042482,0.0744937,0,139,mp-1147756,CuCl2,https://materialsproject.org/materials/mp-1147756,139.5136742
-6.945374633,-90.28987023,2.752064912,-2.649677643,0.9999999,1.3853,147,mp-763559,Li2V(PO4)2,https://materialsproject.org/materials/mp-763559,153.7206696
-6.83745614,-41.02473684,2.866228918,-2.61310218,0,4.7096,82,mp-677335,GaPO4,https://materialsproject.org/materials/mp-677335,95.41506474
-7.246431175,-79.71074293,3.172419771,-2.727369991,2.0000004,1.8808,5,mp-26251,LiVP2O7,https://materialsproject.org/materials/mp-26251,121.3445442
-5.668428267,-130.3738501,2.292281894,-1.555501317,2.0000003,4.4696,2,mp-697458,KNiH9(CO5)2,https://materialsproject.org/materials/mp-697458,210.7137023
-5.737309184,-143.4327296,2.266315762,-1.234464471,3.9999995,2.9651,2,mp-753135,CrH10S2(NO2)4,https://materialsproject.org/materials/mp-753135,227.3049871
-2.336871676,-18.69497341,2.212033925,0.201822081,6.70E-06,0,225,mp-1078988,Mg7V,https://materialsproject.org/materials/mp-1078988,165.9586478
-3.201120406,-76.82688974,1.966364734,-0.195064712,0.9807892,0,225,mp-1192183,Mg7VH16,https://materialsproject.org/materials/mp-1192183,200.3116369
-5.667178275,-22.6687131,3.112115789,-1.330567291,2,0,160,mp-10225,NaVS2,https://materialsproject.org/materials/mp-10225,73.66568055
-6.613379739,-99.20069608,2.913446191,-2.547261727,2.9999999,3.0869,2,mp-755739,Li3VP2HO8,https://materialsproject.org/materials/mp-755739,149.7363458
-7.019447831,-84.23337397,2.979043898,-2.524773813,0,0.6503,12,mp-767644,LiV(PO4)2,https://materialsproject.org/materials/mp-767644,138.1394413
-4.240716212,-46.64787833,2.826847918,-0.610418033,1.8335518,3.8319,148,mp-28138,Ni(ClO4)2,https://materialsproject.org/materials/mp-28138,151.3154942
-3.737556687,-33.63801018,2.533283758,-0.05953586,6.9999999,0,12,mp-1181665,Co(ClO3)2,https://materialsproject.org/materials/mp-1181665,148.0326951
-7.117874863,-56.9429989,3.937986223,-1.357266495,1.30E-06,3.4101,6,mp-1228436,Al3GaN4,https://materialsproject.org/materials/mp-1228436,87.15727465
-5.671827744,-45.37462195,4.130018163,-2.578160957,2.45E-05,0,221,mp-1099251,Mg3GaO4,https://materialsproject.org/materials/mp-1099251,83.08110699
-4.292079967,-12.8762399,3.191726523,0.70123988,3.827433,0,216,mp-631274,KFeP,https://materialsproject.org/materials/mp-631274,65.51006038
-2.147850675,-8.5914027,1.481287657,0.439084733,0.7641683,0,221,mp-1186068,Na3Sc,https://materialsproject.org/materials/mp-1186068,127.7113694
-5.689058737,-233.2514082,1.970120639,-1.824830462,3.9999996,1.9649,2,mp-1183004,Al2FeP2(HO)18,https://materialsproject.org/materials/mp-1183004,402.7932107
-2.572374972,-15.43424983,2.195235166,0.080758721,0.0019902,0,187,mp-1094265,Mg5Ti,https://materialsproject.org/materials/mp-1094265,128.1329825
-5.474361168,-224.4488079,2.010225794,-1.610132893,4.6679815,0,2,mp-1238545,Al2FeP2(HO)18,https://materialsproject.org/materials/mp-1238545,394.7572558
-2.487167112,-14.92300267,2.145230432,0.165966581,1.9665433,0,189,mp-1094498,Mg5Ti,https://materialsproject.org/materials/mp-1094498,131.1197272
-3.372425991,-30.35183392,1.783133826,-0.291939502,0,0.8191,12,mp-1209896,Ni(H3Cl)2,https://materialsproject.org/materials/mp-1209896,126.3209762
-5.627632971,-90.04212754,3.828816554,-2.289539679,0,0.3932,123,mp-1032503,Mg6ZnCO8,https://materialsproject.org/materials/mp-1032503,152.3331977
-3.783701697,-34.05331527,2.429477251,0.182319368,0.603555,0,12,mp-1180080,Ni(ClO3)2,https://materialsproject.org/materials/mp-1180080,154.1939251
-4.971368353,-14.91410506,2.706195132,-0.099568817,0,0.0415,216,mp-1100394,MgScB,https://materialsproject.org/materials/mp-1100394,49.13264913
-5.996521201,-287.8330176,1.326342141,-0.146528053,2.0000001,0,87,mp-698214,KMnH24(C7N4)2,https://materialsproject.org/materials/mp-698214,498.8223291
-7.482827745,-14.96565549,4.442100955,-1.8020548,1.26E-05,0,187,mp-1018028,TiS,https://materialsproject.org/materials/mp-1018028,29.88005178
-1.852584547,-11.11550728,2.40455879,-0.010527305,0,0,187,mp-1094631,Mg5Ga,https://materialsproject.org/materials/mp-1094631,132.0719508
-5.861345371,-117.2269074,3.8000032,-2.82122243,0.9999961,0,12,mp-753285,Mg9CuO10,https://materialsproject.org/materials/mp-753285,193.2712871
-4.012790795,-68.21744352,2.24753388,-0.047829295,8.4252658,0,156,mp-1225276,Fe(ClO7)2,https://materialsproject.org/materials/mp-1225276,259.1381538
-3.62261893,-18.11309465,2.825894414,-1.333011316,3.00E-07,1.8252,156,mp-1220972,NaLiZnS2,https://materialsproject.org/materials/mp-1220972,93.70689022
-5.935416316,-29.67708158,4.579540007,-1.951909374,3.0219089,0,221,mp-1099934,CaCoO3,https://materialsproject.org/materials/mp-1099934,53.30553708
-6.739085803,-107.8253729,2.495540771,-2.857901649,1,0.5447,5,mp-760462,Li5Ti(SiO4)2,https://materialsproject.org/materials/mp-760462,177.4882622
-5.597238382,-27.98619191,2.495948223,-1.61373144,3.0000127,0,8,mvc-14243,CaCoO3,https://materialsproject.org/materials/mvc-14243,97.80444859
-1.866411973,-11.19847184,2.450437205,-0.024354732,0.0001579,0,189,mp-1094606,Mg5Ga,https://materialsproject.org/materials/mp-1094606,129.5992281
-6.63251157,-19.89753471,3.364334453,-1.296497433,0.5886653,0,166,mp-1013526,VS2,https://materialsproject.org/materials/mp-1013526,56.79599363
-6.04443786,-132.9776329,3.679591456,-2.941676606,4.0000001,3.548,2,mp-753206,Mg10FeO11,https://materialsproject.org/materials/mp-753206,214.3093159
-4.395894957,-13.18768487,1.409589199,0.940119181,0.1875974,0,1,mp-611224,VS2,https://materialsproject.org/materials/mp-611224,135.5577343
-4.74785957,-14.24357871,1.445806281,0.588154567,0.0004669,0,1,mp-655446,VS2,https://materialsproject.org/materials/mp-655446,132.1620474
-5.74534544,-34.47207264,3.30168182,-0.268966464,1.00E-07,0,44,mp-28945,Si2NiP3,https://materialsproject.org/materials/mp-28945,104.5031782
-4.072282645,-24.43369587,2.843574757,-1.349072641,0,1.5182,107,mp-545359,KNa2CuO2,https://materialsproject.org/materials/mp-545359,105.4767216
-7.10420727,-56.83365816,3.943280343,-1.343598902,0,3.3491,215,mp-1019378,Al3GaN4,https://materialsproject.org/materials/mp-1019378,87.04026011
-4.75720536,-47.5720536,1.535575246,-0.885879918,5.9999999,2.0987,1,mp-1179550,Sc(NF2)3,https://materialsproject.org/materials/mp-1179550,217.3209067
-4.742797404,-47.42797404,1.807434584,-0.871471962,6,1.037,8,mp-1179554,Sc(NF2)3,https://materialsproject.org/materials/mp-1179554,184.6332961
-4.434843813,-44.34843813,2.786676824,-0.563518371,6.0000008,0.5725,225,mp-1078490,Sc(NF2)3,https://materialsproject.org/materials/mp-1078490,119.7528905
-6.63276646,-19.89829938,2.901009357,-1.296752323,0.5778506,0,166,mvc-11241,VS2,https://materialsproject.org/materials/mvc-11241,65.86697753
-6.469225955,-25.87690382,4.093475633,-2.423736943,4.0000021,0.0457,123,mp-19842,CaFeO2,https://materialsproject.org/materials/mp-19842,51.89212347
-2.82364609,-11.29458436,2.138722951,-0.037260606,0.0003118,0,221,mp-1185790,Mg3Sc,https://materialsproject.org/materials/mp-1185790,91.51687972
-5.482826243,-54.82826243,2.381990521,-3.424850662,0,5.9413,225,mp-1111282,Li3ScF6,https://materialsproject.org/materials/mp-1111282,125.3212345
-5.396351705,-21.58540682,4.719312861,-1.879006291,0,0.8497,123,mp-1147749,CaNiO2,https://materialsproject.org/materials/mp-1147749,46.01284737
-6.798184682,-122.3673243,2.688991968,-2.381510978,4,0.823,1,mp-690004,LiCo(PO3)4,https://materialsproject.org/materials/mp-690004,235.7503421
-6.374732448,-31.87366224,4.231854846,-2.2930582,4.0725465,0,221,mp-1001571,CaFeO3,https://materialsproject.org/materials/mp-1001571,56.47329126
-7.109718723,-99.53606212,2.764745932,-2.563040757,4.9999999,4.3261,146,mp-753149,LiMn(PO3)3,https://materialsproject.org/materials/mp-753149,179.4597623
-6.837158434,-129.9060103,2.706352609,-2.552521628,2.9654981,2.8598,2,mp-540530,Li2Co(PO3)4,https://materialsproject.org/materials/mp-540530,238.4968521
-5.975819566,-29.87909783,4.001240533,-1.693162815,0.9999999,0,221,mp-1076732,KCrO3,https://materialsproject.org/materials/mp-1076732,57.7242709
-6.308149897,-18.92444969,3.33011947,-0.074979773,2,0,8,mp-1245815,KCrN,https://materialsproject.org/materials/mp-1245815,52.40787343
-6.421702215,-25.68680886,4.026240295,-2.124985074,3.0000001,2.8653,166,mp-546552,KCrO2,https://materialsproject.org/materials/mp-546552,50.76722927
-5.473099561,-54.73099561,2.712880638,-3.529038205,0,6.0598,225,mp-1113900,Na2LiScF6,https://materialsproject.org/materials/mp-1113900,129.682524
-7.141848824,-99.98588353,2.407353216,-2.595170858,5.0000003,3.9634,146,mp-752899,LiMn(PO3)3,https://materialsproject.org/materials/mp-752899,206.1021393
-4.557668345,-45.57668345,2.193356441,-1.347749969,3.9999994,0,225,mp-1205783,NaSc(NF3)2,https://materialsproject.org/materials/mp-1205783,158.9478734
-5.464560786,-27.32280393,3.273019868,-2.865423069,4.0000003,0,221,mp-555036,KCrF3,https://materialsproject.org/materials/mp-555036,75.1320151
-5.518332876,-27.59166438,3.189647946,-2.919195159,3.9999999,0.7059,123,mp-566131,KCrF3,https://materialsproject.org/materials/mp-566131,77.09583701
-4.04918549,-20.24592745,3.817822558,-0.549233238,6.00E-07,0,221,mp-1207078,CaNiH3,https://materialsproject.org/materials/mp-1207078,44.27522084
-5.828029635,-238.9492151,2.267139194,-1.921080184,5.0000001,3.9531,2,mp-504975,MnAl2P2(HO)18,https://materialsproject.org/materials/mp-504975,349.3588686
-6.897287003,-131.0484531,2.756706155,-2.586816695,4,4.3487,2,mp-758865,Li2Fe(PO3)4,https://materialsproject.org/materials/mp-758865,232.2802916
-4.349908788,-17.39963515,4.047114816,0.476746249,2.30E-05,0,225,mp-983359,GaSi3,https://materialsproject.org/materials/mp-983359,63.1780868
-7.67069727,-38.35348635,4.371424264,-2.783277311,0.5430468,0,221,mp-1186993,ScSiO3,https://materialsproject.org/materials/mp-1186993,45.97837889
-3.185444787,-73.2652301,1.631664872,-0.169839409,1.0042855,0,225,mp-1191852,Mg6TiH16,https://materialsproject.org/materials/mp-1191852,213.5371154
-6.652097817,-219.519228,1.682051346,0.314460022,1.1078859,0,2,mp-1202003,CoC12N8(ClO5)2,https://materialsproject.org/materials/mp-1202003,539.0320276
-6.666853969,-126.6702254,2.859968723,-2.467571787,1.00E-07,3.2187,2,mp-771782,Li2Ni(PO3)4,https://materialsproject.org/materials/mp-771782,225.5473578
-5.38623443,-10.77246886,2.060450767,0.49269268,1,0,216,mp-1009752,ScSi,https://materialsproject.org/materials/mp-1009752,58.86484556
-5.39128845,-21.5651538,2.787189139,-1.858457829,0.9999998,1.8461,44,mp-1216404,VCl2O,https://materialsproject.org/materials/mp-1216404,82.12580762
-7.20145375,-57.61163,3.949771626,-0.334514615,2.00E-07,2.6052,6,mp-1079836,GaSi3C3N,https://materialsproject.org/materials/mp-1079836,85.77213675
-1.884733109,-15.07786487,2.177444363,-0.064151726,1.11E-05,0,38,mp-1099313,LiMg6Ga,https://materialsproject.org/materials/mp-1099313,169.6759649
-2.118853834,-16.95083067,2.430906833,0.298046792,1.20E-06,0,38,mp-1098205,Mg6GaB,https://materialsproject.org/materials/mp-1098205,154.6279989
-5.702778444,-91.2444551,3.768237241,-2.593362933,1.30E-06,0,123,mp-1032022,Mg6ZnSiO8,https://materialsproject.org/materials/mp-1032022,161.8657911
-6.168673138,-98.69877021,3.630048441,-2.732571119,3.0031905,0,123,mp-1033116,Mg6AlVO8,https://materialsproject.org/materials/mp-1033116,160.9046524
-4.377172608,-17.50869043,4.01764978,0.449482429,0.0001232,0,139,mp-1184252,GaSi3,https://materialsproject.org/materials/mp-1184252,63.64142847
-6.123099973,-73.47719968,2.241460334,-1.448946963,3.9999993,0,150,mp-1207838,VS2NO8,https://materialsproject.org/materials/mp-1207838,190.4474553