energy_per_atom,energy,density,formation_energy_per_atom,total_magnetization,band_gap,sgr,mp_id,formula,URL,cell_volume
-5.684820185,-22.73928074,4.931482517,-1.785620842,0,0.6652,166,mp-22526,LiCoO2,https://materialsproject.org/materials/mp-22526,32.95599824
-5.497281913,-21.98912765,4.701613492,-1.598082569,3.7731201,0,123,mp-1222334,LiCoO2,https://materialsproject.org/materials/mp-1222334,34.56726706
-5.61224985,-22.4489994,4.880569506,-1.380109504,0,0,166,mp-27913,CoHO2,https://materialsproject.org/materials/mp-27913,31.28115504
-4.597667945,-18.39067178,4.392955873,-2.101401131,2.0214096,0,166,mp-1097040,LiCoF2,https://materialsproject.org/materials/mp-1097040,39.2632792
-5.873445163,-17.62033549,3.830954868,-0.216632104,0.1691225,0,187,mp-1246462,LiCoN,https://materialsproject.org/materials/mp-1246462,34.62461691
-5.588925816,-27.94462908,4.117062014,-0.222749013,0.7892544,0,164,mp-1247124,Li2CoN2,https://materialsproject.org/materials/mp-1247124,40.66730542
-4.49205575,-26.9523345,3.60365295,-0.199139602,0.0031299,0,216,mp-1071690,Be5Co,https://materialsproject.org/materials/mp-1071690,47.91978408
-4.833921193,-19.33568477,4.303332042,-0.259297225,0.0054515,0,139,mp-1183423,Be3Co,https://materialsproject.org/materials/mp-1183423,33.17338978
-4.87124392,-14.61373176,4.663729255,-0.014912133,0.7501744,0,69,mp-1227342,Be2Co,https://materialsproject.org/materials/mp-1227342,27.40103985
-7.846805107,-23.54041532,5.739707419,0.24917493,2.50E-06,0,160,mp-1245659,CoCN,https://materialsproject.org/materials/mp-1245659,24.57682407
-2.873054638,-11.49221855,2.351418656,0.335423435,1.164747,0,139,mp-976017,Li3Co,https://materialsproject.org/materials/mp-976017,56.32271188
-5.151829084,-25.75914542,3.581751966,-1.65087508,1,0.8842,71,mp-755133,Li2CoO2,https://materialsproject.org/materials/mp-755133,48.59290433
-5.275820434,-26.37910217,3.943941579,-1.77486643,3.0000003,2.5515,164,mp-755297,Li2CoO2,https://materialsproject.org/materials/mp-755297,44.13040283
-4.039166854,-52.5091691,2.636348584,-0.049628357,0.0001693,0,139,mp-1104193,Be12Co,https://materialsproject.org/materials/mp-1104193,105.2371577
-4.424765953,-13.27429786,1.134530937,0.138175621,1,0.917,12,mp-1181781,CoO2,https://materialsproject.org/materials/mp-1181781,133.0912386
-5.68666393,-17.05999179,3.139958309,-1.123722356,1.0000003,1.3682,166,mvc-13108,CoO2,https://materialsproject.org/materials/mvc-13108,48.08857725
-5.33588983,-26.67944915,3.48527216,-1.302230221,2.9999999,2.3773,1,mp-626708,Co(HO)2,https://materialsproject.org/materials/mp-626708,44.28451152
-5.356790294,-26.78395147,3.612727287,-1.323130685,3.0000001,2.4779,5,mp-625939,Co(HO)2,https://materialsproject.org/materials/mp-625939,42.72217714
-5.157631832,-25.78815916,3.421887263,-1.123972223,2.9999998,2.2636,156,mp-625943,Co(HO)2,https://materialsproject.org/materials/mp-625943,45.10481009
-5.21656966,-26.0828483,3.772880804,-1.182910051,3.0000003,0,164,mp-24105,Co(HO)2,https://materialsproject.org/materials/mp-24105,40.90868044
-5.681710307,-17.04513092,4.439998983,-1.118768732,1.0000001,1.1238,166,mp-1062939,CoO2,https://materialsproject.org/materials/mp-1062939,34.00814465
-5.212364037,-15.63709211,2.535494916,-0.649422462,2.6361299,0,42,mp-1062643,CoO2,https://materialsproject.org/materials/mp-1062643,59.55292071
-5.436276147,-16.30882844,1.985131486,-0.873334572,2.9731849,0,12,mp-556750,CoO2,https://materialsproject.org/materials/mp-556750,76.06353975
-4.0657173,-16.2628692,5.777660874,0.141583781,6.70E-06,0,221,mp-1183678,CoH3,https://materialsproject.org/materials/mp-1183678,17.8068676
-5.226063815,-10.45212763,7.83746666,-0.051198314,1.1781758,0,225,mp-1206874,CoH,https://materialsproject.org/materials/mp-1206874,12.69984283
-5.303452477,-15.91035743,0.874556287,-0.740510903,2.9999997,0,65,mp-1063268,CoO2,https://materialsproject.org/materials/mp-1063268,172.6545563
-6.737989985,-13.47597997,7.556150602,0.793243279,1.0591101,0,221,mp-1008985,CoN,https://materialsproject.org/materials/mp-1008985,16.02926538
-7.207104915,-14.41420983,7.528328818,0.324128349,0.1728692,0,225,mp-1009078,CoN,https://materialsproject.org/materials/mp-1009078,16.08850332
-5.986257978,-23.94503191,3.791187542,-1.631408499,5,2.1214,156,mp-755285,FeHO2,https://materialsproject.org/materials/mp-755285,38.91703626
-5.984326428,-23.93730571,4.358311749,-1.962417952,5.0000002,0.0881,123,mp-1222302,LiFeO2,https://materialsproject.org/materials/mp-1222302,36.11349299
-5.757540388,-23.03016155,4.582699653,-1.735631912,0.9999998,1.6783,166,mp-19419,LiFeO2,https://materialsproject.org/materials/mp-19419,34.34522721
-5.875161846,-29.37580923,5.178508702,-0.956408545,3.7885447,0,221,mp-1183397,CoBO3,https://materialsproject.org/materials/mp-1183397,37.7552409
-5.663696715,-22.65478686,4.081997415,-2.343254504,4,0,123,mp-775022,LiFeOF,https://materialsproject.org/materials/mp-775022,39.77803173
-4.856122765,-19.42449106,4.66112896,-1.362357887,1,0,166,mp-25411,LiNiO2,https://materialsproject.org/materials/mp-25411,34.78207567
-4.806387605,-19.22555042,4.528942707,-0.979681724,0.9999999,0.1393,8,mp-1067482,NiHO2,https://materialsproject.org/materials/mp-1067482,33.62190081
-5.012356143,-45.11120529,2.808310262,-2.327709967,3.0000001,1.8528,12,mp-850355,Li4Co(OF)2,https://materialsproject.org/materials/mp-850355,92.65162668
-4.742599858,-18.97039943,4.346190444,-0.915893977,0.9999999,0,156,mp-999337,NiHO2,https://materialsproject.org/materials/mp-999337,35.0356627
-4.836308163,-19.34523265,4.317387266,-1.342543284,1,0.316,8,mp-25587,LiNiO2,https://materialsproject.org/materials/mp-25587,37.5513546
-4.700348793,-18.80139517,3.60228429,-1.206583914,1,0.5773,44,mp-25316,LiNiO2,https://materialsproject.org/materials/mp-25316,45.00581496
-5.427556606,-27.13778303,3.414351337,-1.364746787,4.7093032,0,221,mp-1185320,LiFeO3,https://materialsproject.org/materials/mp-1185320,53.87889849
-6.374389193,-19.12316758,3.694772595,-0.267630624,0.2494051,0,187,mp-1245817,LiFeN,https://materialsproject.org/materials/mp-1245817,34.51288897
-3.527191488,-17.63595744,4.033641405,-0.037168102,0.0014291,0,221,mp-1213745,CoNF3,https://materialsproject.org/materials/mp-1213745,53.49070286
-4.304158006,-21.52079003,3.507124904,-0.663863065,1.0000018,0,221,mp-1185261,LiNiO3,https://materialsproject.org/materials/mp-1185261,53.80229495
-4.76334343,-33.34340401,1.994337518,-0.192391166,3.5636764,0,71,mp-28637,Li4FeN2,https://materialsproject.org/materials/mp-28637,92.93981146
-5.40122571,-16.20367713,3.399133658,-0.188325271,0,0,187,mp-29719,LiNiN,https://materialsproject.org/materials/mp-29719,38.90613581
-5.122989405,-20.49195762,4.042914866,-0.210906305,1.5730418,0,221,mp-983590,Be3Fe,https://materialsproject.org/materials/mp-983590,34.04178603
-3.536298008,-14.14519203,1.741690248,0.537077506,3.6866317,0,65,mp-1209929,NiO3,https://materialsproject.org/materials/mp-1209929,101.7204794
-4.618231037,-27.70938622,3.374533739,-0.100342133,1.5488059,0,216,mp-1025010,Be5Fe,https://materialsproject.org/materials/mp-1025010,49.65373468
-5.571581528,-27.85790764,3.143451028,-1.972460218,4,1.7921,71,mp-755094,Li2FeO2,https://materialsproject.org/materials/mp-755094,53.73701094
-4.14788821,-53.92254673,2.611691239,-0.054516134,0.0624866,0,139,mp-1104104,Be12Fe,https://materialsproject.org/materials/mp-1104104,104.2672117
-7.322247133,-21.9667414,5.89620579,-0.049952448,0.7834413,0,191,mp-569376,2-Feb,https://materialsproject.org/materials/mp-569376,21.81690775
-5.518421838,-27.59210919,3.650180837,-1.919300528,4.0000005,2.7179,164,mp-754868,Li2FeO2,https://materialsproject.org/materials/mp-754868,46.27706676
-5.355173873,-21.42069549,4.890085123,-1.59836731,0,0.8322,166,mp-18921,NaCoO2,https://materialsproject.org/materials/mp-18921,38.6847125
-5.239538173,-20.95815269,4.379000011,-1.48273161,4.0000001,0.97,160,mp-1221066,NaCoO2,https://materialsproject.org/materials/mp-1221066,43.19971149
-5.226320853,-20.90528341,4.377400371,-1.469514291,4.0000003,0.9607,164,mp-1101661,NaCoO2,https://materialsproject.org/materials/mp-1101661,43.21549803
-6.05391022,-18.16173066,3.897566477,-1.327356469,4,0,164,mp-1224855,FeO2,https://materialsproject.org/materials/mp-1224855,37.42541922
-6.05817754,-18.17453262,4.06496226,-1.331623789,3.9999996,0,12,mp-1062652,FeO2,https://materialsproject.org/materials/mp-1062652,35.88423459
-4.528391958,-18.11356783,4.213287817,-0.286702455,9.00E-07,0,139,mp-865168,Be3Ni,https://materialsproject.org/materials/mp-865168,33.78784655
-5.632450786,-28.16225393,3.402823612,-1.500623871,4,2.28,5,mp-626689,Fe(HO)2,https://materialsproject.org/materials/mp-626689,43.85049705
-5.935350373,-17.80605112,2.859742164,-1.208796623,2.0000001,0.8703,166,mvc-14925,FeO2,https://materialsproject.org/materials/mvc-14925,51.00741638
-5.645019938,-28.22509969,3.443761717,-1.513193023,3.9999998,2.3352,164,mp-626680,Fe(HO)2,https://materialsproject.org/materials/mp-626680,43.32921933
-7.293810752,-65.64429677,1.481562336,-0.733416371,1,0,215,mp-510741,Co(CO)4,https://materialsproject.org/materials/mp-510741,191.6276639
-2.784146958,-11.13658783,2.401551851,0.09139665,3.00E-07,0,139,mp-1185204,Li3Ni,https://materialsproject.org/materials/mp-1185204,54.98115165
-4.375119888,-17.50047955,5.48826774,0.169640326,0.0005712,0,221,mp-1018061,FeH3,https://materialsproject.org/materials/mp-1018061,17.81144406
-4.951738039,-74.27607059,2.643093598,-2.081577931,2,0.9286,1,mp-850211,Li8CoO5F,https://materialsproject.org/materials/mp-850211,134.1053585
-5.9089545,-11.817909,7.098569651,-0.059170734,2.0782112,0,225,mp-1009077,FeH,https://materialsproject.org/materials/mp-1009077,13.29937312
-4.144400987,-12.43320296,3.308228055,-0.122038699,2.0000001,0.2025,71,mp-634706,NiO2,https://materialsproject.org/materials/mp-634706,45.52223614
-4.737254712,-23.68627356,3.582156527,-1.56064828,0,2.9545,71,mp-19183,Li2NiO2,https://materialsproject.org/materials/mp-19183,48.47625735
-4.713851756,-23.56925878,3.326562825,-1.537245323,2.0000001,1.938,166,mp-754756,Li2NiO2,https://materialsproject.org/materials/mp-754756,52.20089047
-4.57552803,-13.72658409,4.627086453,-0.553165743,0,1.5218,166,mp-25210,NiO2,https://materialsproject.org/materials/mp-25210,32.5470337
-4.8797417,-24.3987085,2.189845531,-1.170429663,1.9999998,1.8437,5,mp-626843,Ni(HO)2,https://materialsproject.org/materials/mp-626843,70.29965538
-4.898972308,-24.49486154,3.778451905,-1.189660271,1.9999997,3.1137,5,mp-625074,Ni(HO)2,https://materialsproject.org/materials/mp-625074,40.74297888
-4.901087194,-24.50543597,3.860605552,-1.191775157,2,3.1594,12,mp-1180084,Ni(HO)2,https://materialsproject.org/materials/mp-1180084,39.8759687
-4.90463132,-24.5231566,3.864830079,-1.195319283,2.0000004,3.1318,164,mp-27912,Ni(HO)2,https://materialsproject.org/materials/mp-27912,39.83238151
-4.672124474,-23.36062237,3.621904002,-0.962812437,1.9999998,0.5338,156,mp-625072,Ni(HO)2,https://materialsproject.org/materials/mp-625072,42.50399405
-4.889403998,-24.44701999,2.188653644,-1.180091961,2.0000001,1.8011,166,mp-626794,Ni(HO)2,https://materialsproject.org/materials/mp-626794,70.33793883
-4.885665015,-73.28497522,2.613376847,-2.202562576,3.0000002,2.4757,2,mp-759827,Li8Co(O2F)2,https://materialsproject.org/materials/mp-759827,137.5358387
-6.887889923,-68.87889923,3.172087581,-1.792549393,1.9999996,0,148,mp-753103,LiCo(CO3)2,https://materialsproject.org/materials/mp-753103,97.31159907
-7.65303227,-15.30606454,6.961795042,0.553119259,2.5517909,0,221,mp-1009019,FeN,https://materialsproject.org/materials/mp-1009019,16.66114474
-8.138224325,-16.27644865,6.830444128,0.067927204,2.4138306,0,225,mp-1008929,FeN,https://materialsproject.org/materials/mp-1008929,16.98154215
-6.40029766,-12.80059532,6.981601898,1.101567371,2.00E-07,0,225,mp-1009582,NiC,https://materialsproject.org/materials/mp-1009582,16.81661602
-6.346088073,-82.49914495,3.078947463,0.263186973,1.3948338,0,225,mp-1104127,NiB12,https://materialsproject.org/materials/mp-1104127,101.6216537
-6.831816396,-68.31816396,2.585506319,-1.736475866,4,0,12,mp-753487,LiCo(CO3)2,https://materialsproject.org/materials/mp-753487,119.3889617
-4.979954142,-24.89977071,4.04761062,-1.129225854,4.1515635,0,221,mp-1186126,NaCoO3,https://materialsproject.org/materials/mp-1186126,53.30037537
-6.425953485,-12.85190697,7.210140845,0.439410849,2.00E-05,0,225,mp-1009488,NiN,https://materialsproject.org/materials/mp-1009488,16.74327268
-5.943387895,-11.88677579,7.461526872,0.921976439,3.80E-06,0,221,mp-1009483,NiN,https://materialsproject.org/materials/mp-1009483,16.1791757
-4.893285239,-68.50599335,2.605202564,-2.35523532,3,2.408,1,mp-759770,Li7Co(OF)3,https://materialsproject.org/materials/mp-759770,135.4547788
-5.154470951,-46.39023856,2.650119986,-2.415287382,4.0000002,2.9127,12,mp-752518,Li4Fe(OF)2,https://materialsproject.org/materials/mp-752518,96.24713108
-4.102641947,-12.30792584,4.855755563,-1.015568012,0.9999995,0,123,mp-1147690,NiOF,https://materialsproject.org/materials/mp-1147690,32.03989546
-5.038457293,-50.38457293,3.323563482,-2.760807226,3.0000004,0.0424,139,mp-759652,Li4CoOF4,https://materialsproject.org/materials/mp-759652,89.27829051
-5.135017703,-30.81010622,3.334122924,-2.915517027,4.9999998,3.1454,65,mp-756849,LiFeF4,https://materialsproject.org/materials/mp-756849,69.11831694
-5.201780822,-57.21958904,2.684500041,-2.402959007,4.9999999,2.7067,8,mp-755038,Li5FeO3F2,https://materialsproject.org/materials/mp-755038,109.2046455
-7.088721343,-70.88721343,1.658020894,-0.993569135,0,4.0532,215,mp-18939,LiCo(CO)4,https://materialsproject.org/materials/mp-18939,178.1848057
-5.102921725,-66.33798243,2.574948391,-1.831140347,1.9999998,0,148,mp-771897,Li6FeO6,https://materialsproject.org/materials/mp-771897,124.7766295
-5.098792681,-76.48189021,2.668403387,-2.008852466,4.0000001,0.3296,2,mp-756356,Li8FeO6,https://materialsproject.org/materials/mp-756356,129.0453258
-3.223423486,-16.11711743,3.551251771,-0.057747672,2.0940381,0,221,mp-1068795,NiNF3,https://materialsproject.org/materials/mp-1068795,60.6445667
-5.096195265,-71.34673371,2.676952189,-1.921828796,3,0.3228,146,mp-752471,Li7FeO6,https://materialsproject.org/materials/mp-752471,124.327653
-4.739196574,-52.13116231,2.917397311,-2.132426976,1.0000001,0,12,mp-759151,Li5NiO3F2,https://materialsproject.org/materials/mp-759151,102.1080515
-5.813318463,-23.25327385,4.176983158,-1.933802768,4.9999996,1.9441,166,mp-19359,NaFeO2,https://materialsproject.org/materials/mp-19359,44.06133848
-5.091870697,-76.37806046,2.576539511,-2.188988153,5,2.7118,1,mp-755400,Li8FeO5F,https://materialsproject.org/materials/mp-755400,135.5791148
-5.109872458,-66.42834196,2.571492052,-2.053926854,3.0012552,0,1,mp-757357,Li6FeO5F,https://materialsproject.org/materials/mp-757357,126.8809457
-5.10444718,-71.46226052,2.582803432,-2.130499644,4.0000001,0.6864,1,mp-754420,Li7FeO5F,https://materialsproject.org/materials/mp-754420,130.7877869
-5.124058091,-66.61275518,2.579084403,-2.28394826,4,1.0191,2,mp-755545,Li6Fe(O2F)2,https://materialsproject.org/materials/mp-755545,128.4383345
-4.541190013,-18.16476005,4.570999119,-1.189817916,1.0000001,0,166,mp-578611,NaNiO2,https://materialsproject.org/materials/mp-578611,41.29804956
-7.358845978,-117.7415357,1.777444069,0.134708955,0,4.1762,162,mp-570847,CoH3(CN)6,https://materialsproject.org/materials/mp-570847,203.719205
-5.006821785,-60.08186142,3.179239965,-2.831403164,2.9961167,0.0798,123,mp-752884,Li5CoOF5,https://materialsproject.org/materials/mp-752884,106.8794623
-5.004163231,-60.04995877,2.536098345,-2.82874461,2.9999174,1.0418,156,mp-850339,Li5CoOF5,https://materialsproject.org/materials/mp-850339,133.9835494
-7.124814781,-71.24814781,3.149959583,-1.980390598,5,2.1145,148,mp-753899,LiFe(CO3)2,https://materialsproject.org/materials/mp-753899,96.3672195
-4.22496482,-16.89985928,4.02832351,-0.873592723,2.1251868,0,123,mp-1147543,NaNiO2,https://materialsproject.org/materials/mp-1147543,46.86151638
-4.567300695,-18.26920278,4.635043433,-1.215928598,1.0000001,0.5083,12,mp-19149,NaNiO2,https://materialsproject.org/materials/mp-19149,40.72741731
-4.972745359,-74.59118038,2.528041191,-2.256920485,3.9999998,3.2065,2,mp-1176841,Li8Fe(O2F)2,https://materialsproject.org/materials/mp-1176841,140.1499744
-4.982164206,-74.73246309,2.370744129,-2.266339332,3.9999998,2.9018,2,mp-752873,Li8Fe(O2F)2,https://materialsproject.org/materials/mp-752873,149.4488181
-4.921098338,-54.13208172,2.941399891,-2.721366447,3.3406677,0,12,mp-754887,Li4CoOF5,https://materialsproject.org/materials/mp-754887,111.6032054
-2.102555788,-8.41022315,2.156368318,0.678743942,1.6007223,0,225,mp-1006112,Na3Co,https://materialsproject.org/materials/mp-1006112,98.49296035
-4.163407576,-20.81703788,2.363395586,-1.214629593,1.9999999,2.8435,139,mp-778404,Na2NiO2,https://materialsproject.org/materials/mp-778404,96.02656403
-5.299133548,-26.49566774,4.310900152,-1.395218573,2.8272565,0,221,mp-1076820,MgCoO3,https://materialsproject.org/materials/mp-1076820,50.55165967
-4.749423869,-71.24135804,2.753165978,-1.987379618,0.9999998,1.1085,1,mp-760066,Li8NiO5F,https://materialsproject.org/materials/mp-760066,128.5991577
-5.356827812,-26.78413906,3.747323239,-1.407932218,4.8291097,0,221,mp-1186134,NaFeO3,https://materialsproject.org/materials/mp-1186134,56.20307713
-3.765290049,-37.65290049,0.186993678,0.008192295,7.2216512,0,65,mp-1212378,Li3CoO6,https://materialsproject.org/materials/mp-1212378,1560.716111
-5.706843023,-17.12052907,2.671126819,0.210058504,2.1899646,0,187,mp-1245887,NaFeN,https://materialsproject.org/materials/mp-1245887,57.71604822
-4.712780192,-70.69170288,2.663737221,-2.137793611,1.9999996,2.89,2,mp-1176816,Li8Ni(O2F)2,https://materialsproject.org/materials/mp-1176816,134.7861136
-4.701673663,-70.52510494,2.629761331,-2.126687082,0,3.1644,2,mp-753488,Li8Ni(O2F)2,https://materialsproject.org/materials/mp-753488,136.527518
-4.728504083,-66.19905716,2.664883176,-2.10587365,1,1.5503,1,mp-761279,Li7Ni(O2F)2,https://materialsproject.org/materials/mp-761279,130.4030845
-5.379035834,-43.03228667,3.318162942,-1.834484636,3.0673134,0,139,mp-754360,Li3FeO4,https://materialsproject.org/materials/mp-754360,70.39459016
-5.086396301,-40.69117041,3.489539197,-2.655399066,2.9961164,0.1212,123,mp-759806,Li3CoOF3,https://materialsproject.org/materials/mp-759806,72.68830069
-5.12481823,-66.62263699,2.2026383,-2.500544173,4.9999996,2.7067,160,mp-780876,Li6Fe(OF)3,https://materialsproject.org/materials/mp-780876,152.6502409
-4.234399228,-21.17199614,3.859600155,-0.708018512,1.0000015,0,221,mp-1186154,NaNiO3,https://materialsproject.org/materials/mp-1186154,55.79359721
-5.385827493,-43.08661994,3.334651129,-1.841276294,2.9999998,0,38,mp-764163,Li3FeO4,https://materialsproject.org/materials/mp-764163,70.04652401
-5.385946589,-43.08757271,3.351680837,-1.841395391,3.6281193,0,65,mp-760335,Li3FeO4,https://materialsproject.org/materials/mp-760335,69.69062143
-5.110393894,-35.77275726,3.156792082,-2.935397222,4,0,139,mp-755154,Li2FeF4,https://materialsproject.org/materials/mp-755154,76.65210765
-5.076275067,-35.53392547,2.425680085,-2.901278395,4,3.3952,82,mp-755718,Li2FeF4,https://materialsproject.org/materials/mp-755718,99.75543271
-2.844640773,-11.37856309,2.983112373,-0.12091601,1.24E-05,0,225,mp-1185377,LiMg2Ni,https://materialsproject.org/materials/mp-1185377,63.59374459
-4.942697206,-34.59888044,3.117488442,-2.767700534,4.0000005,3.5037,65,mp-755356,Li2FeF4,https://materialsproject.org/materials/mp-755356,77.61849674
-7.159931173,-64.43938056,2.74373328,-1.655901264,4.000823,0,148,mp-752929,Fe(CO3)2,https://materialsproject.org/materials/mp-752929,106.4341958
-4.803131953,-48.03131953,3.370028198,-2.687655672,2.0000064,1.9211,139,mp-753143,Li4NiOF4,https://materialsproject.org/materials/mp-753143,87.92919814
-4.84578046,-111.4529506,1.555228603,-0.188754794,1.00E-07,0.6325,12,mp-24025,NiH12(N3O2)2,https://materialsproject.org/materials/mp-24025,233.6440523