energy_per_atom,energy,density,formation_energy_per_atom,total_magnetization,band_gap,sgr,mp_id,formula,URL,cell_volume
-4.983134851,-69.76388792,3.094846231,-2.880738692,2.9999969,0.019,139,mp-759438,Li6CoOF6,https://materialsproject.org/materials/mp-759438,123.711752
-6.432425493,-225.1348922,1.440192986,-0.291864027,2.9999998,2.4677,12,mp-698295,CoH14C10(N4O)2,https://materialsproject.org/materials/mp-698295,388.7951163
-3.250962323,-22.75673626,2.711257318,0.349237876,6.0000013,0,139,mp-1206377,Ni(NF2)2,https://materialsproject.org/materials/mp-1206377,99.64763781
-2.401561983,-9.60624793,1.885992343,0.717196879,3.0631025,0,221,mp-1186037,Na3Fe,https://materialsproject.org/materials/mp-1186037,109.8938878
-6.638642633,-73.02506896,2.193540765,-0.435483508,2.0000001,1.8343,12,mp-1103006,Ni(N3O2)2,https://materialsproject.org/materials/mp-1103006,156.4982215
-5.003587368,-25.01793684,3.121812427,-1.632294507,3.9999999,0.4065,71,mp-1176388,Na2FeO2,https://materialsproject.org/materials/mp-1176388,71.18264896
-4.768010041,-57.21612049,2.550345176,-2.727736242,1.9998724,1.7733,156,mp-753062,Li5NiOF5,https://materialsproject.org/materials/mp-753062,133.0789542
-5.425523498,-21.70209399,5.039672243,-2.007668042,2.0000003,3.425,166,mp-1221953,MgNiO2,https://materialsproject.org/materials/mp-1221953,37.89082521
-6.620609618,-26.48243847,4.058996753,-2.160809082,3.9999997,1.1504,12,mp-754656,LiMnO2,https://materialsproject.org/materials/mp-754656,38.40550661
-6.601462383,-26.40584953,3.719463596,-2.141661847,4.0000002,1.1382,8,mp-25542,LiMnO2,https://materialsproject.org/materials/mp-25542,41.91137313
-6.565021773,-26.26008709,3.765078231,-1.772280234,4,0.6742,8,mp-1002573,MnHO2,https://materialsproject.org/materials/mp-1002573,38.78690957
-4.16030157,-20.80150785,3.602305576,-1.211523587,0,2.0103,71,mp-752558,Na2NiO2,https://materialsproject.org/materials/mp-752558,63.00097333
-6.541294308,-26.16517723,4.035566487,-2.081493772,3.9999997,0,166,mp-25373,LiMnO2,https://materialsproject.org/materials/mp-25373,38.62848676
-5.720062416,-28.60031208,3.984441797,-1.717980135,4.0350427,0,221,mp-1076368,MgFeO3,https://materialsproject.org/materials/mp-1076368,53.40649954
-3.896662118,-38.96662118,0.181167603,-0.215738121,10.5438211,0,65,mp-1211341,Li3FeO6,https://materialsproject.org/materials/mp-1211341,1582.600705
-4.809601507,-57.71521808,3.247375556,-2.769327707,1.9999785,1.9047,123,mp-753377,Li5NiOF5,https://materialsproject.org/materials/mp-753377,104.5143264
-2.013115438,-8.05246175,2.193056064,0.435249827,0.0011268,0,225,mp-1186073,Na3Ni,https://materialsproject.org/materials/mp-1186073,96.66369856
-6.763036385,-74.39340023,3.061763548,-2.375916339,4.0000003,0,148,mp-1177982,Li2Fe(BO3)2,https://materialsproject.org/materials/mp-1177982,101.6062625
-5.140379268,-51.40379268,3.148025561,-2.813645548,3.9999999,4.076,87,mp-754592,Li4FeOF4,https://materialsproject.org/materials/mp-754592,92.62758262
-5.269552084,-68.50417709,1.949150485,-0.39223742,5.5592929,0,2,mp-1104601,Co(NO5)2,https://materialsproject.org/materials/mp-1104601,210.3760083
-3.487310221,-34.87310221,0.191995789,0.316142337,4.5342669,0,65,mp-1213623,Li3NiO6,https://materialsproject.org/materials/mp-1213623,1517.980463
-5.42606692,-27.1303346,4.409899078,-1.093398301,1.8084637,0,221,mvc-11226,AlCoO3,https://materialsproject.org/materials/mvc-11226,50.42465831
-4.89479723,-14.68439169,0.257308186,-0.35720158,6.0000002,1.3747,99,mp-1239060,LiMnO,https://materialsproject.org/materials/mp-1239060,502.5887456
-2.014742373,-8.05896949,2.22189143,0.433622892,7.42E-05,0,139,mp-1186066,Na3Ni,https://materialsproject.org/materials/mp-1186066,95.40921192
-6.53420779,-19.60262337,3.548856861,-0.194309757,2.2716675,0,38,mp-1246674,LiMnN,https://materialsproject.org/materials/mp-1246674,35.50755837
-4.791828023,-38.33462418,3.59680171,-2.56354802,1.9977068,1.9215,123,mp-752550,Li3NiOF3,https://materialsproject.org/materials/mp-752550,70.40991021
-6.35063421,-31.75317105,3.738269861,-0.574606423,3.0000004,0.4092,164,mp-1247418,Li2MnN2,https://materialsproject.org/materials/mp-1247418,43.01340508
-7.445011864,-37.22505932,4.433316806,-0.270340737,0.5657278,0,71,mp-1010,MnB4,https://materialsproject.org/materials/mp-1010,36.77497591
-6.838158904,-75.21974794,2.555473507,-1.987957587,4.0000002,3.4101,12,mp-754028,Li2Fe(CO3)2,https://materialsproject.org/materials/mp-754028,123.2956034
-7.78903855,-23.36711565,5.593633398,-0.283604401,1.8265986,0,191,mp-585,MnB2,https://materialsproject.org/materials/mp-585,22.72779329
-5.272403223,-21.08961289,3.93060913,-0.185465525,0.8833507,0,221,mp-973292,MnBe3,https://materialsproject.org/materials/mp-973292,34.63127575
-5.937744434,-29.68872217,2.995460873,-1.988309476,4.9995109,0,71,mp-755372,Li2MnO2,https://materialsproject.org/materials/mp-755372,55.88910528
-4.931455659,-78.90329054,2.965932258,-2.883826345,3.0000002,2.2671,25,mp-765549,Li7CoOF7,https://materialsproject.org/materials/mp-765549,143.6115879
-3.664625082,-18.32312541,3.873369453,-0.244264797,1.80E-06,0,221,mp-1017629,MgNiH3,https://materialsproject.org/materials/mp-1017629,36.87829326
-3.713602445,-14.85440978,4.157359947,-0.248086254,2.70E-06,0,123,mp-1017509,MgNiH2,https://materialsproject.org/materials/mp-1017509,33.95653316
-3.780333757,-11.34100127,4.491100242,-0.239557723,2.60E-06,0,123,mp-1008881,MgNiH,https://materialsproject.org/materials/mp-1008881,31.06049735
-4.686784713,-42.18106242,3.139861241,-2.679442827,4.0003788,0.2947,12,mp-777463,Li2FeF6,https://materialsproject.org/materials/mp-777463,97.16032763
-5.988652402,-29.94326201,3.482321638,-2.039217444,5.0000002,2.4357,164,mp-19279,Li2MnO2,https://materialsproject.org/materials/mp-19279,48.07529157
-4.218174213,-54.83626477,2.581069987,-0.071000722,1.1976322,0,139,mp-1104792,MnBe12,https://materialsproject.org/materials/mp-1104792,104.920723
-6.101625946,-30.50812973,3.021857703,-1.619485383,5.0000001,1.5237,1,mp-625671,Mn(HO)2,https://materialsproject.org/materials/mp-625671,48.88035344
-5.906517624,-29.53258812,2.934806102,-1.424377061,5.0000003,1.735,156,mp-625656,Mn(HO)2,https://materialsproject.org/materials/mp-625656,50.33023219
-6.102112418,-30.51056209,3.195948427,-1.619971855,4.9999998,1.7221,5,mp-626701,Mn(HO)2,https://materialsproject.org/materials/mp-626701,46.21772721
-6.11467823,-30.57339115,3.169608837,-1.632537667,5.0000002,1.6065,164,mp-23789,Mn(HO)2,https://materialsproject.org/materials/mp-23789,46.60179857
-6.709059173,-20.12717752,4.56634798,-1.398649343,2.9999999,0,123,mp-1221542,MnO2,https://materialsproject.org/materials/mp-1221542,31.61432851
-7.112352887,-21.33705866,2.79664319,-1.801943056,2.9999996,1.9256,166,mvc-12823,MnO2,https://materialsproject.org/materials/mvc-12823,51.619751
-4.814883098,-67.40836337,3.137335142,-2.828325357,1.999658,1.9243,139,mp-753283,Li6NiOF6,https://materialsproject.org/materials/mp-753283,121.909405
-5.001020303,-20.00408121,4.745681471,-1.385996477,2.0001403,0,166,mp-25372,LiCuO2,https://materialsproject.org/materials/mp-25372,35.86032333
-4.755089406,-66.57125168,3.138128449,-2.768531665,2.0000045,1.9476,71,mp-753281,Li6NiOF6,https://materialsproject.org/materials/mp-753281,121.8785868
-4.157388097,-62.36082145,3.665857761,2.015446912,3.31E-05,0,225,mp-1104404,Ni(N4O3)2,https://materialsproject.org/materials/mp-1104404,120.8278821
-5.074671208,-20.29868483,4.355434,-1.459647382,0,0.3752,12,mp-9158,LiCuO2,https://materialsproject.org/materials/mp-9158,39.0734131
-6.365680524,-222.7988183,1.483356345,-0.271454426,2.0000003,3.9505,12,mp-698298,NiH14C10(N4O)2,https://materialsproject.org/materials/mp-698298,377.2133462
-6.183053595,-24.73221438,5.713562784,-1.375391284,0,1.4576,166,mp-1096940,CuBO2,https://materialsproject.org/materials/mp-1096940,30.91030321
-9.030192145,-18.06038429,5.825235597,-0.474331421,1.0662715,0,216,mp-1009130,MnN,https://materialsproject.org/materials/mp-1009130,19.65335801
-8.312529125,-16.62505825,7.06364655,0.243331599,1.8713421,0,221,mp-1009128,MnN,https://materialsproject.org/materials/mp-1009128,16.20769667
-4.854570583,-19.41828233,4.496472805,-1.941013021,0,0,123,mp-1147631,LiCuOF,https://materialsproject.org/materials/mp-1147631,38.95534154
-4.9625752,-19.8503008,4.380980254,-1.347551374,1.9999819,0,156,mp-754912,LiCuO2,https://materialsproject.org/materials/mp-754912,38.84556927
-6.734591828,-33.67295914,4.817450466,-1.367357573,3.9999305,0,221,mp-1185996,MnBO3,https://materialsproject.org/materials/mp-1185996,39.20782214
-4.480575288,-17.92230115,4.061968063,-2.268483991,0,1.8469,166,mp-753098,LiCuF2,https://materialsproject.org/materials/mp-753098,44.34835354
-5.193363557,-46.74027201,2.963259538,-2.820100829,5.0000002,2.388,8,mp-754295,Li3FeOF4,https://materialsproject.org/materials/mp-754295,94.51355599
-2.812462925,-11.2498517,3.176649371,0.16828688,0.3303041,0,225,mp-978276,Mg3Co,https://materialsproject.org/materials/mp-978276,68.92138526
-4.262422775,-17.0496911,3.917292598,-0.466813903,6.00E-07,0,225,mp-862318,LiAl2Ni,https://materialsproject.org/materials/mp-862318,50.69733113
-3.839728446,-34.55755601,2.814769737,-0.383403917,0,1.9201,225,mp-23804,Mg2FeH6,https://materialsproject.org/materials/mp-23804,65.18968331
-5.466926061,-60.13618667,2.7574973,-1.998713487,2,0,12,mp-770101,Li5MnO5,https://materialsproject.org/materials/mp-770101,102.1556458
-4.944562316,-24.72281158,4.825264383,-0.842954645,0.0093257,0,221,mp-1183426,BeCuO3,https://materialsproject.org/materials/mp-1183426,41.48758761
-4.463302067,-13.3899062,4.7866546,-1.052075363,2.00E-07,0,216,mp-1009014,LiCuO,https://materialsproject.org/materials/mp-1009014,30.00300954
-4.62167904,-13.86503712,4.316975745,0.031566663,7.00E-07,0,123,mp-1147646,LiCuN,https://materialsproject.org/materials/mp-1147646,32.50078198
-5.70893884,-28.5446942,3.955829021,-1.278102915,4.4997017,0,221,mvc-11225,AlFeO3,https://materialsproject.org/materials/mvc-11225,54.9163234
-6.85350797,-20.56052391,2.819589949,0.23890471,0,2.546,160,mp-35308,CuCN,https://materialsproject.org/materials/mp-35308,52.74650745
-5.105741694,-25.52870847,3.317737368,-1.167237354,1.1749489,0,221,mp-1069166,MnNF3,https://materialsproject.org/materials/mp-1069166,63.03338332
-5.413852218,-59.5523744,2.718664264,-2.455796927,3.9999996,1.2774,12,mp-753558,Li5MnO3F2,https://materialsproject.org/materials/mp-753558,107.2783591
-3.876223898,-15.50489559,4.23919859,-0.054275448,5.60E-06,0,225,mp-1183404,Be3Cu,https://materialsproject.org/materials/mp-1183404,35.4821438
-4.76572655,-28.5943593,3.660457998,-0.244737202,0.9433432,0,216,mp-1227272,Be4AlFe,https://materialsproject.org/materials/mp-1227272,53.92686412
-5.310554062,-69.03720281,2.559057777,-1.904036666,0.9999997,0,148,mp-752842,Li6MnO6,https://materialsproject.org/materials/mp-752842,124.9629259
-5.296466535,-79.44699802,2.738022153,-2.089755104,3,1.7967,148,mp-755817,Li8MnO6,https://materialsproject.org/materials/mp-755817,125.2140893
-7.180393874,-71.80393874,3.372435192,-2.06633346,4.0000001,0,148,mp-1222048,MgFe(CO3)2,https://materialsproject.org/materials/mp-1222048,98.55977283
-4.819557752,-24.09778876,4.529178101,-0.811236705,0.8905716,0,221,mvc-11155,AlNiO3,https://materialsproject.org/materials/mvc-11155,49.00877384
-4.538765371,-36.31012297,3.083196765,-2.618311608,5.0000001,1.1701,148,mvc-15850,MgCoF6,https://materialsproject.org/materials/mvc-15850,106.2228066
-2.442922033,-9.77168813,2.319421438,0.012880523,2.00E-07,0,139,mp-975882,Li3Cu,https://materialsproject.org/materials/mp-975882,60.40213993
-5.322324848,-26.61162424,4.535349778,-1.314003801,2.999011,0,221,mp-1183176,AlNiO3,https://materialsproject.org/materials/mp-1183176,48.942083
-3.736863733,-37.36863733,3.039096241,0.073891091,10.8348228,0,225,mp-1079464,Fe(NF2)3,https://materialsproject.org/materials/mp-1079464,115.7562422
-4.491528342,-22.45764171,3.155875527,-1.217914751,0.0006602,0,139,mp-1147636,Li2CuO2,https://materialsproject.org/materials/mp-1147636,57.57751593
-4.375763623,-26.25458174,3.714875607,-0.30170334,1.50E-06,0,216,mp-1227279,Be4AlNi,https://materialsproject.org/materials/mp-1227279,54.41013962
-5.463295788,-54.63295788,3.142514336,-2.680818739,4.0000002,1.2772,8,mp-759014,Li4MnO2F3,https://materialsproject.org/materials/mp-759014,90.72607829
-4.942298498,-24.71149249,3.586758205,-1.668684908,0.9921721,0,71,mp-4711,Li2CuO2,https://materialsproject.org/materials/mp-4711,50.66064202
-4.90541369,-24.52706845,3.779132081,-1.6318001,0.9981527,0,12,mp-1239022,Li2CuO2,https://materialsproject.org/materials/mp-1239022,48.08180015
-6.28884003,-25.15536012,3.942098887,-1.971432276,4.0000005,1.2993,12,mp-755520,NaMnO2,https://materialsproject.org/materials/mp-755520,46.30463106
-4.270138765,-42.70138765,1.974465992,-0.459383941,10.9999999,1.5557,1,mp-1095055,Fe(NF2)3,https://materialsproject.org/materials/mp-1095055,178.1719017
-5.282579136,-73.9561079,2.642362167,-2.183519582,3,1.2787,1,mp-753538,Li7MnO5F,https://materialsproject.org/materials/mp-753538,127.269878
-5.239743278,-78.59614917,2.575469632,-2.220089518,3.9999998,1.9777,1,mp-753625,Li8MnO5F,https://materialsproject.org/materials/mp-753625,135.0506749
-6.34787676,-25.39150704,4.014431092,-2.030469006,3.9999999,1.2564,12,mp-18957,NaMnO2,https://materialsproject.org/materials/mp-18957,45.47031207
-4.783332114,-76.53331383,3.016013218,-2.837061417,1.9999998,3.1729,8,mp-765342,Li7NiOF7,https://materialsproject.org/materials/mp-765342,141.0948897
-4.611183843,-13.83355153,1.806902091,-0.427142959,0.9999489,0,69,mp-600604,CuO2,https://materialsproject.org/materials/mp-600604,87.80546065
-4.60487813,-13.81463439,2.768971578,-0.420837246,0.9999218,0,69,mp-614565,CuO2,https://materialsproject.org/materials/mp-614565,57.29776056
-6.264363608,-25.05745443,4.0452663,-1.946955853,3.9999997,0,166,mp-578605,NaMnO2,https://materialsproject.org/materials/mp-578605,45.12371276
-4.97762912,-19.91051648,4.033457143,-1.029664292,0,0.5763,12,mp-996953,CuHO2,https://materialsproject.org/materials/mp-996953,39.74991887
-7.302850107,-73.02850107,3.037967389,-1.9832691,3.9999999,0,148,mp-769558,LiMn(CO3)2,https://materialsproject.org/materials/mp-769558,99.42398114
-5.25047139,-73.50659946,2.511539038,-2.351830769,4,2.4911,1,mp-753376,Li7Mn(O2F)2,https://materialsproject.org/materials/mp-753376,135.8820497
-5.122789211,-76.84183816,2.458695243,-2.290193121,5.0000001,2.6208,2,mp-780086,Li8Mn(O2F)2,https://materialsproject.org/materials/mp-780086,143.4902821
-5.190171125,-10.38034225,7.088925016,0.835711104,3.00E-07,0,225,mp-1008922,CuN,https://materialsproject.org/materials/mp-1008922,18.16626438
-4.82277198,-9.64554396,7.268082793,1.203110249,1.20E-06,0,221,mp-1008923,CuN,https://materialsproject.org/materials/mp-1008923,17.71846712
-4.959899735,-49.59899735,2.996189464,-2.962494773,4.9999999,3.8126,162,mp-755087,Li3FeF6,https://materialsproject.org/materials/mp-755087,105.666131
-6.496226534,-32.48113267,3.573128658,-1.295424249,0.8298491,0,8,mp-27249,CuCO3,https://materialsproject.org/materials/mp-27249,57.41963267
-5.37595053,-26.87975265,5.39963424,-0.684537643,0.0004196,0,221,mp-1184042,CuBO3,https://materialsproject.org/materials/mp-1184042,37.62765723
-8.477242995,-127.1586449,1.5156455,0.234615074,0.9999997,0.0765,164,mp-1246950,Mn(C4N3)2,https://materialsproject.org/materials/mp-1246950,257.5356121
-4.027664267,-12.0829928,3.32924223,-1.714200087,5.45E-05,0,123,mp-1147672,CuF2,https://materialsproject.org/materials/mp-1147672,50.64689878
-4.033054743,-12.09916423,2.028048793,-1.719590564,2.66E-05,0,139,mp-1147670,CuF2,https://materialsproject.org/materials/mp-1147670,83.14188241
-5.151835543,-72.1256976,2.467135782,-2.453613855,5.0000001,3.0061,1,mp-760307,Li7Mn(OF)3,https://materialsproject.org/materials/mp-760307,140.3461605
-4.688595559,-42.19736003,2.894304856,-1.538354496,1,0.2555,12,mp-632759,CuH4(OF)2,https://materialsproject.org/materials/mp-632759,78.92946912
-7.427837529,-66.85053776,2.861694771,-1.729188927,3.0000004,1.1851,148,mp-754012,Mn(CO3)2,https://materialsproject.org/materials/mp-754012,101.5206142
-5.348105047,-53.48105047,2.802693608,-2.846214503,5.0000005,2.4558,87,mp-760393,Li4MnOF4,https://materialsproject.org/materials/mp-760393,103.5032737
-5.21295605,-20.8518242,4.621645633,-0.214377919,1.49E-05,0,216,mp-1227277,Be2CoSi,https://materialsproject.org/materials/mp-1227277,37.74155662
-4.685472101,-42.16924891,2.637482123,-1.535231038,0.9999998,0.6739,12,mp-23795,CuH4(OF)2,https://materialsproject.org/materials/mp-23795,86.61516366
-5.499484837,-38.49639386,3.550746519,-3.201363667,2.9999999,3.0083,71,mp-1251112,AlCoF5,https://materialsproject.org/materials/mp-1251112,84.60269374
-5.431916996,-38.02341897,2.439818299,-3.006696289,4.9999999,4.0072,82,mp-763098,Li2MnF4,https://materialsproject.org/materials/mp-763098,98.56009869
-5.755541086,-46.04432869,3.329308585,-1.992043858,2.0000001,0,65,mp-754245,Li3MnO4,https://materialsproject.org/materials/mp-754245,69.70657128
-5.438632504,-38.07042753,2.873596179,-3.013411798,4.9999997,3.7485,166,mp-752931,Li2MnF4,https://materialsproject.org/materials/mp-752931,83.682159
-6.079743838,-48.6379507,3.919695879,-2.366530889,4.0000005,0.8484,12,mp-1222767,Li2AlCoO4,https://materialsproject.org/materials/mp-1222767,69.38979295
-4.618639076,-36.94911261,2.909855259,-2.379930006,2.0100467,0,148,mp-752752,LiMnF6,https://materialsproject.org/materials/mp-752752,100.3617312
-4.725352573,-85.05634631,2.388089421,-1.535831969,1.0000001,0,225,mp-1105542,NaFeH8(NF3)2,https://materialsproject.org/materials/mp-1105542,159.1652658
-5.284973006,-63.41967607,2.370051116,-2.922687321,5.0000005,0.5905,156,mp-760276,Li5MnOF5,https://materialsproject.org/materials/mp-760276,140.5713797
-4.806100661,-38.44880529,2.98481085,-2.824292332,4.0000001,0,148,mvc-15856,MgFeF6,https://materialsproject.org/materials/mvc-15856,108.0060887
-4.703690823,-18.81476329,4.666416455,-1.231059778,1.999994,0,166,mp-578606,NaCuO2,https://materialsproject.org/materials/mp-578606,42.18039298
-6.895027343,-27.58010937,4.369732046,-2.51113623,5.0000005,1.7533,166,mp-1080243,MgMnO2,https://materialsproject.org/materials/mp-1080243,42.27294135
-7.88930554,-78.8930554,1.854939684,0.059654654,0,3.2193,215,mp-13589,CuB(CN)4,https://materialsproject.org/materials/mp-13589,159.7272071
-4.60487465,-18.4194986,4.186874412,-1.132243606,0.5829488,0,123,mp-1120791,NaCuO2,https://materialsproject.org/materials/mp-1120791,47.01150799
-7.417442973,-29.66977189,4.784565493,-0.750310824,2.9999703,0,166,mp-1247154,MgMnN2,https://materialsproject.org/materials/mp-1247154,37.22459531
-4.824293865,-19.29717546,4.071101577,-1.35166282,0,0.4944,12,mp-4541,NaCuO2,https://materialsproject.org/materials/mp-4541,48.34840795
-5.709877328,-45.67901862,3.294198954,-2.647846364,4.0000001,2.4278,65,mp-753602,Li3Mn(OF)2,https://materialsproject.org/materials/mp-753602,73.47297882
-4.064125046,-32.51300037,3.538793282,-2.346388516,0,2.0238,148,mvc-15858,MgNiF6,https://materialsproject.org/materials/mvc-15858,92.43479306
-5.29871647,-58.28588117,2.881705157,-2.8951296,3.9999999,0.5706,12,mp-759491,Li4MnOF5,https://materialsproject.org/materials/mp-759491,111.6129292
-6.242400096,-31.21200048,4.052953608,-1.890004167,3.0000007,0,221,mp-976446,MgMnO3,https://materialsproject.org/materials/mp-976446,52.13211777
-5.752669419,-126.5587272,2.049637624,0.043931778,5.999999,0.2301,202,mp-1191682,Co(N3O4)3,https://materialsproject.org/materials/mp-1191682,305.420067
-2.761137863,-11.04455145,1.770665265,0.532475597,4.3836571,0,139,mp-1186052,Na3Mn,https://materialsproject.org/materials/mp-1186052,116.2009561
-5.528988227,-82.93482341,2.140503551,-0.71210411,0.9590111,0.1726,2,mp-643052,CuH6(NO)4,https://materialsproject.org/materials/mp-643052,147.10004
-3.91943741,-11.75831223,4.505323733,-0.698067748,3.30E-06,0,216,mp-1008867,NaCuO,https://materialsproject.org/materials/mp-1008867,37.79165752
-6.372762633,-146.5735406,1.651352367,-0.21895,1.00265,0,12,mp-583429,CuH8C6(N3O)2,https://materialsproject.org/materials/mp-583429,261.1575332