energy_per_atom,energy,density,formation_energy_per_atom,total_magnetization,band_gap,sgr,mp_id,formula,URL,cell_volume
-1.53979085,-9.2387451,2.411182289,0.009292754,0.0012116,0,187,mp-1094450,Mg5Zn,https://materialsproject.org/materials/mp-1094450,128.738174
-2.565729328,-10.26291731,4.537087852,0.621740331,2.46E-05,0,139,mp-1183993,GaH3,https://materialsproject.org/materials/mp-1183993,26.62477311
-5.79291141,-69.51493692,2.40566165,-1.257956272,6.9999999,0,150,mp-1212712,FeS2NO8,https://materialsproject.org/materials/mp-1212712,180.8329405
-5.622443592,-28.11221796,5.605210294,-1.144755429,3.25E-05,0,221,mp-1184023,GaBO3,https://materialsproject.org/materials/mp-1184023,38.07756084
-1.543411777,-9.26047066,2.441129013,0.005671827,3.60E-06,0,189,mp-1094473,Mg5Zn,https://materialsproject.org/materials/mp-1094473,127.1588692
-5.626984012,-129.4206323,2.39041206,-1.118117273,1,0.9996,1,mp-1226417,CoH8S2(NO2)4,https://materialsproject.org/materials/mp-1226417,218.9232364
-7.731479578,-61.85183662,4.525717953,-0.87196243,0,3.7109,215,mp-1019740,GaB3N4,https://materialsproject.org/materials/mp-1019740,58.03912608
-5.07632615,-197.9767199,1.783034861,-1.508831851,1,2.6244,1,mp-694992,CoP2H18(NF2)6,https://materialsproject.org/materials/mp-694992,420.0575725
-7.221613358,-28.88645343,3.89251959,-2.799523542,0.967385,0,166,mp-7002,NaTiO2,https://materialsproject.org/materials/mp-7002,43.87792645
-6.352298657,-19.05689597,2.768382519,-0.989603213,2.9947962,0,166,mvc-14047,MnS2,https://materialsproject.org/materials/mvc-14047,71.41973185
-6.78489325,-74.63382575,2.343832118,-1.986112279,4.5400289,0,1,mp-744274,Fe(Si2O3)2,https://materialsproject.org/materials/mp-744274,187.166498
-6.70176596,-80.42119152,3.508586003,-2.87044756,1.9999999,1.983,12,mp-755151,Li3Al2VO6,https://materialsproject.org/materials/mp-755151,104.9372368
-7.042734946,-35.21367473,3.321187246,-2.659780055,1.0000001,0,221,mp-977123,NaTiO3,https://materialsproject.org/materials/mp-977123,59.42553128
-5.718530319,-91.49648511,3.853412743,-2.165303214,3.30E-06,0,123,mp-1032348,Mg6CuCO8,https://materialsproject.org/materials/mp-1032348,150.5580439
-5.875140811,-94.00225298,3.891794789,-2.694771816,1.0000016,0.3452,123,mp-1033923,Mg6AlNiO8,https://materialsproject.org/materials/mp-1033923,153.3904143
-7.075137795,-771.1900197,1.445378975,-0.039711853,1.00E-07,0.0013,2,mp-1201037,ZnH36(C5N)12,https://materialsproject.org/materials/mp-1201037,1137.851402
-6.011594418,-30.05797209,2.683934158,-0.715819462,2.10E-05,0,164,mp-1247552,Na2TiN2,https://materialsproject.org/materials/mp-1247552,75.39424347
-5.943114881,-95.0898381,3.823923396,-2.549896064,1.8888882,0,123,mp-1032193,Mg6CoSiO8,https://materialsproject.org/materials/mp-1032193,156.6964902
-5.635456936,-28.17728468,2.953016017,-2.93602108,1.8607279,0,221,mp-1120777,NaTiF3,https://materialsproject.org/materials/mp-1120777,71.89368465
-5.012134335,-130.3154927,2.01434328,-1.956104494,3.00E-07,5.1172,148,mp-40134,ZnSiH12(OF)6,https://materialsproject.org/materials/mp-40134,260.1479441
-6.11939445,-97.9103112,3.660758809,-2.795820447,4.0000003,0,123,mp-1032414,LiMg6MnO8,https://materialsproject.org/materials/mp-1032414,152.2771736
-7.347379138,-418.8006109,1.989740959,-0.581361129,0.9999999,0.6932,2,mp-1198330,CuC32(NF2)8,https://materialsproject.org/materials/mp-1198330,720.981788
-5.001704854,-60.02045825,2.542715148,-1.448731238,0,5.286,12,mp-1224894,GaH6N2F3,https://materialsproject.org/materials/mp-1224894,104.9980848
-2.263362123,-9.05344849,1.644497267,0.71472086,3.2768522,0,221,mp-1186007,Na3Ti,https://materialsproject.org/materials/mp-1186007,117.9760249
-6.004032748,-96.06452397,3.660626568,-2.729452942,4.0000006,0,123,mp-1032433,NaMg6MnO8,https://materialsproject.org/materials/mp-1032433,159.562742
-7.853666398,-31.41466559,4.174752293,-1.502064725,0,0.3858,166,mp-1245745,MgTiN2,https://materialsproject.org/materials/mp-1245745,39.84949435
-4.733229243,-18.93291697,3.782221597,-1.039171112,0,1.3764,160,mp-1096827,AlCuS2,https://materialsproject.org/materials/mp-1096827,67.90053783
-5.561765252,-33.37059151,2.209665862,-1.954614231,0,4.2626,216,mp-545756,ZnSO4,https://materialsproject.org/materials/mp-545756,121.3440911
-6.516377132,-39.09826279,3.567617729,-2.640847802,0,1.3796,71,mp-1077081,Na2TiO3,https://materialsproject.org/materials/mp-1077081,66.02129037
-7.369246492,-36.84623246,3.517279031,-2.933104915,0,1.6075,221,mp-1016830,MgTiO3,https://materialsproject.org/materials/mp-1016830,56.73343138
-5.635352631,-140.8838158,2.208328057,-1.208382838,4.0000001,4.3326,2,mp-1238696,FeH10S2(NO2)4,https://materialsproject.org/materials/mp-1238696,236.1678656
-4.031605586,-20.15802793,2.80269568,-1.062790658,8.66E-05,0,12,mp-752881,Li2CuS2,https://materialsproject.org/materials/mp-752881,83.87017794
-6.102534962,-73.23041955,2.984372092,-2.118752379,4.9999999,2.0744,12,mp-1102092,NaFe(SO4)2,https://materialsproject.org/materials/mp-1102092,150.7652509
-4.830975808,-24.15487904,2.995375511,-0.964083707,0.0007251,0,156,mp-1220987,NaLiMnS2,https://materialsproject.org/materials/mp-1220987,82.60011045
-5.875135563,-94.00216901,2.587667969,-1.663985044,4.9999999,2.3215,146,mp-684724,FeH4S2NO8,https://materialsproject.org/materials/mp-684724,170.7010985
-7.235845754,-72.35845754,3.235393373,-2.433025865,2.0000002,0,5,mp-27036,CrP2O7,https://materialsproject.org/materials/mp-27036,115.9615512
-5.361683128,-91.14861318,2.018725523,-1.935608668,0,4.7156,164,mp-696590,TiH8(NF3)2,https://materialsproject.org/materials/mp-696590,162.8144558
-5.981410289,-95.70256462,3.639685193,-2.597846149,3.9999999,0,123,mp-1032523,Mg6FeSiO8,https://materialsproject.org/materials/mp-1032523,163.2194201
-5.380574054,-91.46975891,2.136287602,-1.954499593,0,4.7747,164,mp-1189965,TiH8(NF3)2,https://materialsproject.org/materials/mp-1189965,153.8546108
-5.492079073,-126.3178187,2.43604766,-1.053722677,0,0.7612,2,mp-1220589,NiH8S2(NO2)4,https://materialsproject.org/materials/mp-1220589,214.6585899
-3.922614935,-15.69045974,4.09389197,0.464579645,2.92E-05,0,221,mp-971761,ZnSi3,https://materialsproject.org/materials/mp-971761,60.70639077
-6.618062812,-99.27094218,2.871605308,-2.625629166,4.0000002,3.6342,2,mp-1177450,Li4Cr(PO4)2,https://materialsproject.org/materials/mp-1177450,155.9587828
-1.70730482,-6.82921928,2.041447269,0.054163487,1.03E-05,0,221,mp-1186028,Na3Ga,https://materialsproject.org/materials/mp-1186028,112.8140781
-5.314578265,-143.4936132,2.118539919,-1.329799385,1.9999998,4.5195,2,mp-849432,NiH12S2(NO5)2,https://materialsproject.org/materials/mp-849432,253.1136459
-5.314762434,-196.64621,1.387328014,-0.69519772,0,1.6486,1,mp-1217199,TiH20C8(NF3)2,https://materialsproject.org/materials/mp-1217199,366.3994868
-4.111992752,-24.67195651,2.716434785,-0.368591259,0.0705398,0,123,mp-1077185,MgTiH4,https://materialsproject.org/materials/mp-1077185,46.58286633
-5.022897909,-75.34346863,1.455238157,-0.493844852,4.0000001,0.2138,2,mp-1180117,Ni(SO6)2,https://materialsproject.org/materials/mp-1180117,359.2295791
-5.26824605,-79.02369075,2.183201726,-2.31413415,0,4.5364,150,mp-1208179,TiH6(OF3)2,https://materialsproject.org/materials/mp-1208179,152.0464914
-5.765268084,-92.24428934,3.765319697,-2.501100993,1.7776457,0,123,mp-1031821,Mg6SiNiO8,https://materialsproject.org/materials/mp-1031821,159.0295737
-5.369627397,-91.28366575,2.289992701,-1.943552937,0,4.6808,164,mp-865466,TiH8(NF3)2,https://materialsproject.org/materials/mp-865466,143.5278364
-5.653471079,-62.18818187,1.701609107,1.516790179,10.0000002,0,12,mp-1102751,NiC2(SN3)2,https://materialsproject.org/materials/mp-1102751,225.3123556
-1.720031938,-6.88012775,2.056674386,0.041436369,2.76E-05,0,225,mp-1186045,Na3Ga,https://materialsproject.org/materials/mp-1186045,111.9788302
-4.94481851,-74.17227765,1.667674375,-0.415765454,4,0.154,2,mp-1180184,Ni(SO6)2,https://materialsproject.org/materials/mp-1180184,313.469223
-5.895761763,-159.1855676,1.685173431,-1.397130341,0,2.8133,8,mp-696940,TiH12C2(NF)6,https://materialsproject.org/materials/mp-696940,277.8917262
-0.968517548,-3.87407019,0.174864524,1.14421968,0.9999999,0.0104,71,mp-1096408,Li2MgGa,https://materialsproject.org/materials/mp-1096408,1024.729109
-5.071718668,-55.78890535,2.462434551,-2.463609228,3.999999,0.7223,12,mp-1101987,Li2Ti(OF3)2,https://materialsproject.org/materials/mp-1101987,140.087956
-2.349745365,-9.39898146,2.574123947,-0.237008137,1.95E-05,0,216,mp-1222647,Li2MgGa,https://materialsproject.org/materials/mp-1222647,69.61155388
-4.136241083,-12.40872325,1.205483385,-0.930342319,3.000067,0.1631,164,mp-1120788,CoCl2,https://materialsproject.org/materials/mp-1120788,178.8519485
-8.432210323,-33.72884129,4.7044145,-1.544666595,3.40E-06,0,166,mp-1217025,TiAlN2,https://materialsproject.org/materials/mp-1217025,36.30765631
-7.209324281,-79.30256709,3.27279552,-2.669672322,3.0000002,2.8414,5,mp-27035,LiCrP2O7,https://materialsproject.org/materials/mp-27035,118.1580191
-3.930816993,-15.72326797,4.066326991,0.456377588,1.78E-05,0,139,mp-1187941,ZnSi3,https://materialsproject.org/materials/mp-1187941,61.11790966
-6.855010824,-89.11514071,2.791963655,-2.541890871,2.0000003,0,147,mp-758988,Li2Cr(PO4)2,https://materialsproject.org/materials/mp-758988,152.1511445
-3.895171945,-23.37103167,3.425440395,0.035480336,3.30E-05,0,166,mp-1222135,Mg2CuSi3,https://materialsproject.org/materials/mp-1222135,95.21421674
-7.256688994,-36.28344497,3.544703594,-2.391793773,4.40E-05,0,221,mvc-11693,TiAlO3,https://materialsproject.org/materials/mvc-11693,57.54833937
-3.618991077,-10.85697323,3.410760234,-0.164338255,0,0.1942,216,mp-11390,LiGaSi,https://materialsproject.org/materials/mp-11390,50.99761409
-4.335003654,-21.67501827,2.810087018,-0.647217365,0.9999997,0,12,mp-1069083,Mn(ClO)2,https://materialsproject.org/materials/mp-1069083,93.27262987
-6.707516644,-87.19771637,2.353385606,-2.255103087,1.0000001,0,146,mp-26842,Ni(PO3)3,https://materialsproject.org/materials/mp-26842,208.5806758
-6.590764802,-98.86147203,2.921551698,-2.509546889,4,2.8049,2,mp-762840,Li3CrP2HO8,https://materialsproject.org/materials/mp-762840,149.9203286
-4.817555844,-72.26333766,1.58857178,-0.171718788,4,0.2233,2,mp-1239081,Ni(SO6)2,https://materialsproject.org/materials/mp-1239081,329.0783565
-4.136136207,-12.40840862,3.294833288,-0.930237442,3,0.1539,166,mp-23240,CoCl2,https://materialsproject.org/materials/mp-23240,65.43671056
-4.556657146,-41.00991431,2.424990937,-1.31716011,3.0000002,2.8076,12,mp-23853,CoH4(ClO)2,https://materialsproject.org/materials/mp-23853,113.5811271
-4.532895489,-45.32895489,2.678701966,-0.505111017,4.3211686,0,225,mp-1080110,Ti(NF2)3,https://materialsproject.org/materials/mp-1080110,126.384564
-4.968753335,-104.34382,1.636092,-1.12596782,1.9999998,0,2,mp-746820,NiH6(SO6)2,https://materialsproject.org/materials/mp-746820,325.6582961
-4.900395998,-24.50197999,4.170819073,-1.095281151,4.5718194,0,221,mp-1184947,KCoO3,https://materialsproject.org/materials/mp-1184947,58.13918209
-4.093901187,-12.28170356,3.487656593,-0.888002422,2.9986582,0,12,mp-632413,CoCl2,https://materialsproject.org/materials/mp-632413,61.81888798
-4.10494278,-12.31482834,3.533948597,-0.899044016,2.9999605,0.022,164,mp-696114,CoCl2,https://materialsproject.org/materials/mp-696114,61.00910817
-3.564367096,-17.82183548,2.763622857,-0.325061761,1,0,12,mp-1069855,Co(ClO)2,https://materialsproject.org/materials/mp-1069855,97.24131069
-6.07046209,-12.14092418,3.730571789,-0.247846823,0.1007443,0,187,mp-1217008,TiAl,https://materialsproject.org/materials/mp-1217008,33.31631917
-6.087082275,-12.17416455,3.872837513,-0.264467008,1.00E-05,0,221,mp-1061123,TiAl,https://materialsproject.org/materials/mp-1061123,32.09246968
-3.865456724,-34.78911052,2.342284877,-1.342284634,0,1.5228,123,mp-11147,Na5CuSO2,https://materialsproject.org/materials/mp-11147,171.9594853
-6.785673063,-27.14269225,4.630279006,-1.114744011,0,2.6693,115,mp-1008556,AlGaN2,https://materialsproject.org/materials/mp-1008556,44.72711164
-5.392317005,-53.92317005,2.514079168,-3.177882394,1,0,225,mp-1111280,Li3TiF6,https://materialsproject.org/materials/mp-1111280,120.659672
-6.791668013,-27.16667205,4.631889649,-1.120738961,0,2.7178,156,mp-1228894,AlGaN2,https://materialsproject.org/materials/mp-1228894,44.71155872
-6.063645146,-97.01832233,3.587079363,-2.343812124,3.9999998,0,123,mp-1033328,Mg6CrCO8,https://materialsproject.org/materials/mp-1033328,156.3899675
-6.571846807,-105.1495489,2.539967715,-2.721907779,0,0.2156,5,mp-752704,Li5V(SiO4)2,https://materialsproject.org/materials/mp-752704,176.3937861
-4.622251512,-23.11125756,3.723691574,-2.500655699,3.000001,0,221,mp-559946,KCoF3,https://materialsproject.org/materials/mp-559946,69.13244292
-4.311434558,-43.11434558,0.152943852,-0.58435225,4.494515,0,65,mp-1212104,Na3TiO6,https://materialsproject.org/materials/mp-1212104,2310.763169
-4.763031607,-109.549727,1.24412043,-1.259760529,2.86E-05,3.5725,1,mp-1101034,TiH12N3F7,https://materialsproject.org/materials/mp-1101034,313.6182362
-4.761428797,-14.28428639,3.18389977,-1.105584522,3.9999996,0.5401,164,mp-571096,FeCl2,https://materialsproject.org/materials/mp-571096,66.1060332
-5.378490872,-53.78490872,2.848913712,-3.277970486,1,0,225,mp-1113901,Na2LiTiF6,https://materialsproject.org/materials/mp-1113901,125.1870783
-2.901126355,-11.60450542,2.993437807,-0.252447073,1.33E-05,0,216,mp-1222668,Li2AlGa,https://materialsproject.org/materials/mp-1222668,61.34527473
-4.714014276,-42.42612848,2.287094664,-1.419979848,4.0080385,4.1399,12,mp-23880,FeH4(ClO)2,https://materialsproject.org/materials/mp-23880,118.1871217
-6.49781961,-19.49345883,3.360890995,-0.975972633,2.0136061,0,164,mp-755263,CrS2,https://materialsproject.org/materials/mp-755263,57.37523855
-4.741598315,-109.0567613,1.406391682,-1.238327237,0,3.5431,1,mp-684736,TiH12N3F7,https://materialsproject.org/materials/mp-684736,277.4325673
-5.218136282,-52.18136282,2.341964748,-3.060658784,0.9995934,0,225,mp-1111096,NaLi2TiF6,https://materialsproject.org/materials/mp-1111096,140.9062951
-6.074421564,-48.59537251,2.845225875,-3.821326174,0,4.6182,148,mvc-14678,MgTiF6,https://materialsproject.org/materials/mvc-14678,108.6486551
-4.765397757,-14.29619327,2.932922246,-1.109553482,3.9999796,0.0124,166,mp-23229,FeCl2,https://materialsproject.org/materials/mp-23229,71.7628925
-2.042158295,-8.16863318,2.876415437,-0.081239913,6.87E-05,0,221,mp-978281,Mg3Ga,https://materialsproject.org/materials/mp-978281,82.34414423
-4.008607797,-36.07747017,3.043184116,2.36167325,6.9999995,0,225,mp-1079107,Co(N3Cl)2,https://materialsproject.org/materials/mp-1079107,116.705093
-5.81945633,-17.45836899,3.992553038,0.021422797,0,0.467,160,mp-1247558,KFeN,https://materialsproject.org/materials/mp-1247558,45.3132937
-5.747218437,-143.6804609,2.235184743,-1.250185914,4.9999996,4.3528,2,mp-561026,MnH10S2(NO2)4,https://materialsproject.org/materials/mp-561026,232.6564241
-4.19391011,-16.77564044,3.323120757,-1.211119008,6.00E-07,3.0424,160,mp-1227316,BeZnS2,https://materialsproject.org/materials/mp-1227316,69.23300823
-4.676122678,-46.76122678,2.972722137,-2.948333938,0,5.7707,225,mp-1111076,Li3GaF6,https://materialsproject.org/materials/mp-1111076,114.2524237
-4.791161283,-14.37348385,3.951303137,0.155859713,0.6695125,0,160,mp-1246843,KNiN,https://materialsproject.org/materials/mp-1246843,46.98338785
-4.789902603,-14.36970781,2.961170142,0.157118393,0,0.0418,8,mp-1245814,KNiN,https://materialsproject.org/materials/mp-1245814,62.69332693
-3.731931223,-11.19579367,3.633592484,-0.969945079,1.9438466,0.7412,166,mp-27396,NiCl2,https://materialsproject.org/materials/mp-27396,59.22647193
-1.983451205,-7.93380482,2.781426009,-0.022532822,0.0001645,0,187,mp-1094854,Mg3Ga,https://materialsproject.org/materials/mp-1094854,85.15630716
-4.839244874,-24.19622437,3.491202179,-2.619481755,3.9999989,0,221,mp-556891,KFeF3,https://materialsproject.org/materials/mp-556891,72.26732052
-6.000798951,-96.01278322,3.915736095,-2.783566118,0.1008196,0,123,mp-1033139,Mg6AlCuO8,https://materialsproject.org/materials/mp-1033139,154.5103991
-4.777809955,-100.3340091,1.900784695,-1.350237223,2.9999999,3.0756,12,mp-696766,CoH12(ClO3)2,https://materialsproject.org/materials/mp-696766,207.8581061
-6.167298749,-43.17109124,3.178799646,-3.48901572,2.0000001,0.1858,71,mp-1254289,TiAlF5,https://materialsproject.org/materials/mp-1254289,88.721185
-4.648089598,-46.48089598,3.293342691,-3.034215083,0,5.7453,225,mp-1114336,Na2LiGaF6,https://materialsproject.org/materials/mp-1114336,119.3134034
-4.330620078,-21.65310039,3.814743352,-2.533371837,1.9999964,4.3483,221,mp-560976,KNiF3,https://materialsproject.org/materials/mp-560976,67.37798131
-3.813808442,-34.32427598,2.352690249,0.235085718,5.0000002,0,12,mp-1080182,Co(ClO3)2,https://materialsproject.org/materials/mp-1080182,159.3957481
-4.527320265,-45.27320265,2.744809147,-2.856488637,0,5.3441,225,mp-1111142,NaLi2GaF6,https://materialsproject.org/materials/mp-1111142,133.4483738
-6.458396333,-19.375189,3.082703949,-0.936549356,1.00E-07,0.1743,166,mvc-13555,CrS2,https://materialsproject.org/materials/mvc-13555,62.5528516
-6.841352524,-109.4616404,2.262476983,-2.396374813,4.0000003,0.9391,5,mp-753040,LiMnP3HO10,https://materialsproject.org/materials/mp-753040,231.7822475
-6.050868929,-96.81390287,3.6391112,-2.282962134,3.8779685,0,123,mp-1099230,Mg6CrCO8,https://materialsproject.org/materials/mp-1099230,154.1539113
-5.881075884,-111.7404418,1.7248198,-0.64528062,4.9999999,0.2907,2,mp-1189676,MnC2S2(NO6)2,https://materialsproject.org/materials/mp-1189676,349.5637595
-6.059924461,-96.95879138,3.621245117,-2.432034372,3.2222629,0,123,mp-1033299,Mg6CrBO8,https://materialsproject.org/materials/mp-1033299,154.36433
-4.178208388,-37.60387549,2.55415777,-0.031994228,3,0.1181,12,mp-1080031,Co(ClO3)2,https://materialsproject.org/materials/mp-1080031,146.8228888
-4.818376413,-86.73077544,2.560848874,-1.7786426,0,5.8536,225,mp-865095,NaGaH8(NF3)2,https://materialsproject.org/materials/mp-865095,157.4266457
-3.238439173,-74.48410099,1.706035043,-0.1714391,1.6521182,0,225,mp-1191096,Mg6VH16,https://materialsproject.org/materials/mp-1191096,207.221029
-3.740741707,-33.66667536,2.983032189,2.481568467,8.0000005,0,225,mp-1084748,Ni(N3Cl)2,https://materialsproject.org/materials/mp-1084748,118.9249307
-6.142585793,-98.28137268,3.536386741,-2.533863184,4.774406,0,123,mp-1099233,Mg6CrBO8,https://materialsproject.org/materials/mp-1099233,158.0684233
-2.41843733,-16.92906131,2.008572177,0.253736256,2.2008565,0,225,mp-1078138,Mg6V,https://materialsproject.org/materials/mp-1078138,162.6761346
-6.292477562,-31.46238781,5.292242964,-2.065431284,7.25E-05,0,221,mp-1184206,GaSiO3,https://materialsproject.org/materials/mp-1184206,45.74954689
-3.185010298,-12.74004119,2.964352971,-0.117027519,0.0001911,0,216,mp-1222654,Li2GaSi,https://materialsproject.org/materials/mp-1222654,62.56557079
-6.044997924,-96.71996678,3.683408929,-2.778438394,3.0000001,1.2305,123,mp-1030819,NaMg6CrO8,https://materialsproject.org/materials/mp-1030819,157.2495504
-3.480140563,-41.76168676,2.1638292,-0.261138436,0.6230622,0,221,mp-1101846,Mg3TiH8,https://materialsproject.org/materials/mp-1101846,98.87703528
-5.246648772,-52.46648772,2.651963053,-3.203085499,1,0,225,mp-1111001,Na3TiF6,https://materialsproject.org/materials/mp-1111001,144.5332322
-3.894461733,-15.57784693,4.289122685,0.484971439,5.62E-05,0,225,mp-1064667,ZnSiP2,https://materialsproject.org/materials/mp-1064667,60.17956777
-5.840104688,-93.441675,3.857117547,-2.529983392,6.35E-05,0,123,mp-1032273,Mg6CuSiO8,https://materialsproject.org/materials/mp-1032273,157.3338407
-4.664898985,-97.96287868,1.92547912,-1.314551865,1.9999998,4.0897,12,mp-24231,NiH12(ClO3)2,https://materialsproject.org/materials/mp-24231,204.9855092
-5.874412037,-93.99059259,3.8346454,-2.564290742,4.20E-06,0,123,mp-1032102,Mg6CuSiO8,https://materialsproject.org/materials/mp-1032102,158.2558632