energy_per_atom,energy,density,formation_energy_per_atom,total_magnetization,band_gap,sgr,mp_id,formula,URL,cell_volume
-6.063866015,-187.9798465,2.491568438,-1.970473066,2.9999998,3.1738,2,mp-1183924,CoP4(H5O8)2,https://materialsproject.org/materials/mp-1183924,299.1740922
-7.215259329,-144.3051866,3.334237919,-2.986759926,4.9999998,2.9442,5,mp-1221399,Na2AlFe(SiO3)4,https://materialsproject.org/materials/mp-1221399,215.7156609
-6.180606873,-98.88970996,3.653985703,-2.769203033,3.8779853,0,123,mp-1033159,Mg6AlVO8,https://materialsproject.org/materials/mp-1033159,159.8505659
-5.90661483,-230.3579784,2.0732841,-1.746652119,3,3.3328,2,mp-24300,CoP4H16(NO8)2,https://materialsproject.org/materials/mp-24300,386.8125994
-4.709201669,-42.38281502,1.987221239,-0.492919257,0,1.4195,2,mp-1215742,ZnC2S2(OF)2,https://materialsproject.org/materials/mp-1215742,186.8053083
-5.77695865,-23.1078346,2.365911125,-0.082349497,2.999965,0,160,mp-1063927,TiS2N,https://materialsproject.org/materials/mp-1063927,88.4369919
-3.311518094,-29.80366285,3.096734385,2.7242405,8.8617438,0,139,mp-1079782,Cu(N3Cl)2,https://materialsproject.org/materials/mp-1079782,117.160461
-5.229121897,-31.37473138,3.214849673,-0.032570289,7.00E-07,0,156,mp-1225670,CuSi2P3,https://materialsproject.org/materials/mp-1225670,109.8322507
-5.320146874,-53.20146874,2.526406145,-3.433042631,0,5.5812,225,mp-1113433,Na3ScF6,https://materialsproject.org/materials/mp-1113433,149.8028403
-5.415537174,-27.07768587,5.000348737,-1.209238716,1.00E-05,0,221,mp-1183415,BeGeO3,https://materialsproject.org/materials/mp-1183415,43.0549012
-6.673316768,-126.7930186,2.781117443,-2.474034585,2.0000005,4.5274,5,mp-761495,Li2Ni(PO3)4,https://materialsproject.org/materials/mp-761495,231.9421607
-4.797717236,-38.38173789,2.811122743,-2.640549863,0.999985,1.4007,148,mp-20076,KCrF6,https://materialsproject.org/materials/mp-20076,121.1442473
-5.185929736,-140.0201029,1.847933202,-1.563874694,0,5.0206,2,mp-24345,ZnH12(SO6)2,https://materialsproject.org/materials/mp-24345,299.7948143
-5.530873096,-27.65436548,4.091270457,-1.68888021,0.2093806,0,221,mp-1185303,LiGeO3,https://materialsproject.org/materials/mp-1185303,51.78104075
-4.257056167,-12.7711685,4.54154291,0.753201603,8.70E-06,0,216,mp-631541,BeGeB,https://materialsproject.org/materials/mp-631541,33.80761264
-7.103433058,-28.41373223,4.118384985,-2.620051986,5.0000264,1.1431,123,mp-1227032,CaMnO2,https://materialsproject.org/materials/mp-1227032,51.21257715
-3.581428558,-14.32571423,3.878418113,0.371383376,4.14E-05,0,139,mp-1183424,Be3Ge,https://materialsproject.org/materials/mp-1183424,42.67636732
-2.914569268,-11.65827707,2.570497222,-0.327903229,1.78E-05,0,225,mp-867342,Li3Ge,https://materialsproject.org/materials/mp-867342,60.37701927
-4.84550127,-19.38200508,3.017274,-0.451289621,3.00E-07,0,221,mp-2121,ScAl3,https://materialsproject.org/materials/mp-2121,69.28861667
-7.312952268,-29.25180907,3.410060794,0.125338773,0,1.0446,166,mp-1245873,GeCN2,https://materialsproject.org/materials/mp-1245873,54.86211177
-3.156683384,-15.78341692,1.906721609,0.359655186,6.94E-05,0,65,mp-1070127,GeH4,https://materialsproject.org/materials/mp-1070127,66.77243819
-5.597601065,-11.19520213,6.78031677,1.326508828,6.10E-06,0,225,mp-1002165,GeC,https://materialsproject.org/materials/mp-1002165,20.73144912
-6.433570515,-12.86714103,5.736280223,0.490539378,0,1.6738,216,mp-1002164,GeC,https://materialsproject.org/materials/mp-1002164,24.5046941
-2.528304492,-12.64152246,2.015642017,0.021670887,0.0018146,0,166,mp-1222127,Mg4Sc,https://materialsproject.org/materials/mp-1222127,117.1282651
-4.755599198,-19.02239679,2.916629573,-0.361387549,0.0016556,0,139,mp-999204,ScAl3,https://materialsproject.org/materials/mp-999204,71.67956585
-4.303255186,-34.42604149,2.875052613,-2.535773677,0,2.0974,148,mvc-15834,CaNiF6,https://materialsproject.org/materials/mvc-15834,122.8844667
-5.82627069,-29.13135345,5.517725295,-1.030167016,1.00E-06,0,221,mp-973738,GeBO3,https://materialsproject.org/materials/mp-973738,39.55915105
-7.045868437,-126.8256319,2.75526057,-2.50461669,4.0000003,1.6187,1,mp-689967,LiMn(PO3)4,https://materialsproject.org/materials/mp-689967,227.6723591
-7.02796031,-133.5312459,2.739329993,-2.6253022,5,3.885,2,mp-540477,Li2Mn(PO3)4,https://materialsproject.org/materials/mp-540477,233.2039137
-5.841548508,-227.8203918,2.128421781,-1.723168819,1.9999998,4.9452,2,mp-758839,NiP4H16(NO8)2,https://materialsproject.org/materials/mp-758839,376.6049709
-6.390837891,-76.69005469,2.830552473,-2.267857435,2.0000004,1.6334,12,mp-554124,NaV(SO4)2,https://materialsproject.org/materials/mp-554124,156.0815983
-6.737764925,-134.7552985,2.025040727,-1.694813372,3.0000003,3.129,12,mp-1189653,KCrH4(C2O5)2,https://materialsproject.org/materials/mp-1189653,248.5944722
-6.831591335,-13.66318267,2.413084065,-0.960425634,0,1.6302,216,mp-1009746,ScP,https://materialsproject.org/materials/mp-1009746,52.25022609
-6.81571772,-47.71002404,3.5250516,-2.513588261,0,4.523,82,mp-8873,LiGeBO4,https://materialsproject.org/materials/mp-8873,72.72800154
-6.099909467,-18.2997284,3.291251969,-0.372185672,3.30E-06,0,191,mp-2841,ScSi2,https://materialsproject.org/materials/mp-2841,51.02167411
-4.825244835,-72.37867253,1.289598707,-0.581134237,2.60E-06,3.8144,5,mp-1103502,CaB2(H5N)2,https://materialsproject.org/materials/mp-1103502,128.4972134
-6.609144653,-46.26401257,3.487458629,-2.307015194,0,2.8406,42,mp-549308,LiGeBO4,https://materialsproject.org/materials/mp-549308,73.51197117
-5.77803655,-23.1121462,4.672732884,-2.139432188,1.10E-06,0,123,mp-4826,CaCuO2,https://materialsproject.org/materials/mp-4826,48.19598288
-7.449589364,-37.24794682,2.972163664,0.33124846,6.68E-05,0,123,mp-1022724,CaC4,https://materialsproject.org/materials/mp-1022724,49.23283008
-4.651016314,-23.25508157,2.246700414,-0.30637942,1.9999999,0,164,mp-1069755,Li2CaN2,https://materialsproject.org/materials/mp-1069755,60.58664079
-6.942510486,-111.0801678,2.191203414,-2.502607385,1.9999999,2.2008,5,mp-753170,LiVP3HO10,https://materialsproject.org/materials/mp-753170,236.2927959
-6.794236307,-20.38270892,2.193301173,0.023511013,0,1.3527,139,mp-2482,CaC2,https://materialsproject.org/materials/mp-2482,48.5293846
-3.971713734,-19.85856867,3.705336746,-0.95923239,2.9999963,0,221,mp-1184946,KZnO3,https://materialsproject.org/materials/mp-1184946,68.34502608
-2.608146603,-7.82443981,0.03958091,4.209600716,3.9999996,0.6751,12,mp-1061823,CaC2,https://materialsproject.org/materials/mp-1061823,2689.163916
-4.602408555,-18.40963422,3.466049593,-3.036422256,1.0000002,0,139,mp-1183590,CaF3,https://materialsproject.org/materials/mp-1183590,46.50650545
-7.425532719,-81.68085991,3.091677045,-2.861024079,0.9999998,0,5,mp-752926,LiTiP2O7,https://materialsproject.org/materials/mp-752926,122.8622843
-2.295449409,-18.36359527,2.068507855,0.0954846,1.4769589,0,225,mp-1078548,Mg7Ti,https://materialsproject.org/materials/mp-1078548,175.0057806
-4.770516446,-23.85258223,2.723977225,-2.709527098,0,5.5005,217,mp-9816,GeF4,https://materialsproject.org/materials/mp-9816,90.60718808
-6.41956124,-44.93692868,2.437994691,-0.409067761,0,0.0384,221,mp-865,CaB6,https://materialsproject.org/materials/mp-865,71.47825614