energy_per_atom,energy,density,formation_energy_per_atom,total_magnetization,band_gap,sgr,mp_id,formula,URL,cell_volume
-4.30084727,-12.90254181,4.181573757,0.162541391,6.00E-07,0,38,mp-1246274,NaCuN,https://materialsproject.org/materials/mp-1246274,39.92628258
-1.154707145,-4.61882858,0.214152894,1.149276565,0,0.8941,71,mp-1096231,LiMg2Cu,https://materialsproject.org/materials/mp-1096231,923.4767484
-5.756495613,-40.29546929,3.42099251,-3.388254939,3.9999999,4.2544,71,mp-28901,AlFeF5,https://materialsproject.org/materials/mp-28901,86.31256895
-4.947278311,-69.26189636,2.719787793,-3.045057226,4.9999997,3.8561,65,mp-776687,Li5FeF8,https://materialsproject.org/materials/mp-776687,148.0786599
-6.56762883,-45.97340181,3.056096469,-2.356922413,3.9999999,1.5569,82,mp-758521,LiCoSiO4,https://materialsproject.org/materials/mp-758521,85.82656264
-5.423352704,-37.96346893,2.472461484,-2.998131998,4.9999997,4.0468,111,mp-758876,Li2MnF4,https://materialsproject.org/materials/mp-758876,97.25883854
-4.998721688,-44.98849519,2.189379053,-2.796761109,2.9999998,3.0022,164,mp-758464,Li2MnF6,https://materialsproject.org/materials/mp-758464,138.6529721
-5.073463423,-55.80809765,1.575489917,1.173789865,5.0047263,0.0255,12,mp-1102920,Cu(N3O2)2,https://materialsproject.org/materials/mp-1102920,223.0056545
-4.479332209,-31.35532546,3.343488569,-2.536841051,1.0000001,0,65,mp-752843,Li2CuF4,https://materialsproject.org/materials/mp-752843,76.19663487
-4.46947917,-26.81687502,3.893234851,-0.115883223,6.40E-06,0,216,mp-1227282,Be4SiNi,https://materialsproject.org/materials/mp-1227282,52.38832984
-5.148197359,-36.03738151,3.675851497,-3.081753026,1.9999998,4.7787,71,mp-1263325,AlNiF5,https://materialsproject.org/materials/mp-1263325,81.6149759
-5.05381503,-45.48433527,3.251411178,-2.851854451,2.9999997,2.4687,162,mp-752557,Li2MnF6,https://materialsproject.org/materials/mp-752557,93.36374149
-5.833536531,-128.3378037,2.30016387,-0.33757491,7.9999991,0,202,mp-1210233,NaCo(N2O3)4,https://materialsproject.org/materials/mp-1210233,278.6397987
-6.155385132,-135.4184729,2.509403184,-1.183033873,0,2.4173,166,mp-772317,Li3Co(NO2)6,https://materialsproject.org/materials/mp-772317,235.4352031
-4.377014624,-21.88507312,3.472455304,-1.331229483,0.9996367,0,71,mp-755974,Na2CuO2,https://materialsproject.org/materials/mp-755974,67.6773835
-5.413508362,-48.72157526,2.796050651,-2.845626942,4,1.1135,8,mp-753509,Li3MnOF4,https://materialsproject.org/materials/mp-753509,99.62700853
-6.059011634,-48.47209307,4.088977649,-2.628324569,3.9999977,0,166,mp-1222155,Mg3FeO4,https://materialsproject.org/materials/mp-1222155,78.27910729
-4.634090237,-55.60908284,3.185344424,-2.787218876,0,1.5711,12,mp-758720,Li5CuF6,https://materialsproject.org/materials/mp-758720,110.6427173
-6.437047591,-51.49638073,3.270411231,-2.514182895,3,2.4869,121,mp-764642,Li2CoSiO4,https://materialsproject.org/materials/mp-764642,83.726491
-6.738488078,-74.12336886,2.22328811,-0.9372449,1.0107271,0,2,mp-1181573,CuC2(NO3)2,https://materialsproject.org/materials/mp-1181573,158.0236943
-4.524054997,-13.57216499,4.030357558,0.027978143,6.00E-07,0,38,mp-1247391,MgCuN,https://materialsproject.org/materials/mp-1247391,41.9661742
-4.832464378,-24.16232189,4.342774928,-1.155889817,0.0034532,0,221,mp-1076317,MgCuO3,https://materialsproject.org/materials/mp-1076317,51.94441432
-4.709467588,-47.09467588,3.003831553,-1.488216295,2.0000001,0,87,mp-759165,Na4FeO5,https://materialsproject.org/materials/mp-759165,125.9300248
-3.467867467,-20.8072048,3.374923551,-0.030929255,1.80E-06,0,216,mp-1222012,MgBe4Cu,https://materialsproject.org/materials/mp-1222012,60.96148025
-1.796517365,-7.18606946,2.171228993,0.232106847,5.51E-05,0,139,mp-1186036,Na3Cu,https://materialsproject.org/materials/mp-1186036,101.3466764
-6.222666448,-31.11333224,4.060987452,-1.441516875,3.4813395,0,221,mvc-15603,MnAlO3,https://materialsproject.org/materials/mvc-15603,53.12342237
-4.843536271,-38.74829017,3.619435657,-2.554626795,0.0114931,0,123,mp-1147575,Li3CuOF3,https://materialsproject.org/materials/mp-1147575,72.19590068
-6.836279361,-47.85395553,2.899503309,-2.55545344,5.0000003,2.6353,82,mp-752925,LiFeSiO4,https://materialsproject.org/materials/mp-752925,88.69318613
-4.815926252,-28.89555751,3.49832475,-0.178367172,1.9999962,0,216,mp-1221618,MnBe4Al,https://materialsproject.org/materials/mp-1221618,55.99565532
-7.965286503,-151.3404436,1.631177327,0.186287792,1,0.9014,12,mp-568532,CuB2(CN)8,https://materialsproject.org/materials/mp-568532,298.5868233
-6.899307818,-27.59723127,4.068720516,-2.403181094,2.9999999,2.9998,166,mp-18793,LiCrO2,https://materialsproject.org/materials/mp-18793,37.11304611
-6.853790198,-27.41516079,3.878272958,-2.024722472,2.9999999,2.8213,160,mp-23910,CrHO2,https://materialsproject.org/materials/mp-23910,36.39520371
-4.357853068,-43.57853068,2.924948804,-2.580403096,4.0000001,0,225,mp-1111934,Na3CoF6,https://materialsproject.org/materials/mp-1111934,137.3263833
-6.537881835,-137.2955185,2.452765115,-2.512863432,0.9999568,0.9553,2,mp-1191302,Li6Cu(B2O5)2,https://materialsproject.org/materials/mp-1191302,208.8092549
-3.311696855,-13.24678742,2.674797094,0.18136668,3.4152924,0,221,mp-978286,Mg3Mn,https://materialsproject.org/materials/mp-978286,79.37236551
-6.260600623,-187.8180187,1.823924625,0.248883225,1.00E-07,0.2929,164,mp-1180698,LiCoC8(N2O3)4,https://materialsproject.org/materials/mp-1180698,424.2617645
-6.086949658,-30.43474829,3.566057526,-1.644765241,0.0024852,0,221,mp-1185311,LiCrO3,https://materialsproject.org/materials/mp-1185311,49.79455299
-5.125689547,-51.25689547,2.938951322,-2.953127761,4,1.4794,12,mp-757600,Li3MnF6,https://materialsproject.org/materials/mp-757600,107.2116138
-6.304618495,-25.21847398,3.368142758,-1.228881137,1.00E-07,0,221,mvc-11548,CrO3,https://materialsproject.org/materials/mvc-11548,49.29851578
-6.56096271,-26.24385084,2.604110253,-1.485225352,0,1.6822,38,mp-753740,CrO3,https://materialsproject.org/materials/mp-753740,63.76244582
-3.557190603,-14.22876241,3.799024333,-0.181322783,3.50E-06,0,225,mp-1185307,LiAl2Cu,https://materialsproject.org/materials/mp-1185307,54.39665388
-6.254998994,-75.05998793,3.736788536,-2.603781511,3.9999985,0.8796,164,mp-1222591,Li3Al2CoO6,https://materialsproject.org/materials/mp-1222591,102.0801253
-6.43804123,-32.19020615,3.737548141,-0.566522523,0.1003407,0,164,mp-1245916,Li2CrN2,https://materialsproject.org/materials/mp-1245916,41.71464699
-7.57667583,-37.88337915,4.253214029,-0.306513783,2.00E-07,0,71,mp-27710,CrB4,https://materialsproject.org/materials/mp-27710,37.18362235
-8.005651403,-24.01695421,5.316402852,-0.341065721,0.9712911,0,191,mp-374,CrB2,https://materialsproject.org/materials/mp-374,22.99406808
-3.31332656,-13.25330624,2.695835192,0.179736975,3.6589356,0,225,mp-978285,Mg3Mn,https://materialsproject.org/materials/mp-978285,78.75294944
-4.534666338,-104.2973258,1.057396418,-0.119725033,3.9999999,0.9962,2,mp-567148,Cr(B3H8)2,https://materialsproject.org/materials/mp-567148,208.8466115
-6.506984975,-26.0279399,4.982300093,-2.431928517,0,1.7996,166,mp-3748,AlCuO2,https://materialsproject.org/materials/mp-3748,40.83651423
-8.065767407,-24.19730222,5.06406479,0.448115338,1.0475797,0,225,mp-1014264,CrN2,https://materialsproject.org/materials/mp-1014264,26.23562372
-6.455047807,-19.36514342,4.96446228,-0.468171583,1.00E-07,0,225,mp-2379,CoSi2,https://materialsproject.org/materials/mp-2379,38.50064694
-6.055383274,-30.27691637,3.000757722,-2.076887365,4.0000001,1.031,71,mp-1178001,Li2CrO2,https://materialsproject.org/materials/mp-1178001,54.16245782
-6.599042783,-52.79234226,3.105020733,-2.61482352,4.0000002,3.0795,121,mp-752853,Li2FeSiO4,https://materialsproject.org/materials/mp-752853,86.53468406
-3.455762055,-13.82304822,1.658366384,0.384393398,4.8380721,0,221,mp-976010,Li3Cr,https://materialsproject.org/materials/mp-976010,72.91450162
-4.253152603,-55.29098384,2.492767729,-0.069251835,1.3754872,0,139,mp-1590,Be12Cr,https://materialsproject.org/materials/mp-1590,106.6776144
-3.43647828,-13.74591312,1.649669027,0.403677173,4.5293302,0,225,mp-1185185,Li3Cr,https://materialsproject.org/materials/mp-1185185,73.29892023
-6.00379569,-30.01897845,3.222200944,-2.025299782,3.9999999,1.4731,12,mp-755566,Li2CrO2,https://materialsproject.org/materials/mp-755566,50.44018558
-7.22329803,-21.66989409,5.153052943,-1.864453283,2,0.003,225,mp-1009555,CrO2,https://materialsproject.org/materials/mp-1009555,27.06683051
-4.596275315,-45.96275315,3.308813038,-2.712881961,0,1.0962,87,mp-752773,Li4CuF5,https://materialsproject.org/materials/mp-752773,93.4962983
-5.58161272,-55.8161272,2.590707027,-1.508807927,3,2.4813,6,mp-1226463,CrH5O4,https://materialsproject.org/materials/mp-1226463,77.57754303
-7.196643463,-21.58993039,3.786397967,-1.837798716,1.9999998,0,166,mp-25302,CrO2,https://materialsproject.org/materials/mp-25302,36.83627866
-7.193415147,-21.58024544,2.649000453,-1.834570399,1.9999998,0,166,mvc-11544,CrO2,https://materialsproject.org/materials/mvc-11544,52.65261864
-6.253961326,-75.04753591,3.719106924,-2.602743843,4.0000001,0.9197,12,mp-1222601,Li3Al2CoO6,https://materialsproject.org/materials/mp-1222601,102.565441
-4.731239848,-18.92495939,4.328150705,0.107738614,2.3866222,0,221,mp-1183679,CrH3,https://materialsproject.org/materials/mp-1183679,21.10895192
-5.40390105,-16.21170315,5.181643983,-0.031841989,0.8808754,0,225,mp-24208,CrH2,https://materialsproject.org/materials/mp-24208,17.30898566
-4.972445,-24.862225,4.544423519,-0.867116795,1.00E-07,0,221,mvc-15239,AlCuO3,https://materialsproject.org/materials/mvc-15239,50.6175087
-5.896976476,-47.17581181,4.226937474,-2.527643978,2.9695809,0,221,mp-1099254,Mg3CoO4,https://materialsproject.org/materials/mp-1099254,76.93740217
-9.445625855,-18.89125171,6.388803148,-0.014537134,1.00E-07,0,187,mp-1018050,CrC,https://materialsproject.org/materials/mp-1018050,16.63625999
-4.981934412,-54.80127853,2.361345343,-2.877737321,2.9999997,1.5604,160,mp-759724,Li3MnF7,https://materialsproject.org/materials/mp-759724,146.7965308
-3.867445137,-23.20467082,3.665721175,-0.073212222,1.02E-05,0,216,mp-1227275,Be4AlCu,https://materialsproject.org/materials/mp-1227275,57.3379213
-9.50554404,-19.01108808,6.76302548,-0.710956016,0.0125735,0,187,mp-1183691,CrN,https://materialsproject.org/materials/mp-1183691,16.2057982
-5.100406588,-61.20487905,2.367299983,-3.012561534,3.9999995,0,216,mp-759476,Li4MnF7,https://materialsproject.org/materials/mp-759476,151.296037
-9.4590252,-18.9180504,5.146223665,-0.664437176,1.8822871,0,216,mp-1018157,CrN,https://materialsproject.org/materials/mp-1018157,21.2972139
-5.23046715,-41.8437372,3.065017018,-3.029712791,2.9999995,2.6296,148,mvc-15860,MgMnF6,https://materialsproject.org/materials/mvc-15860,104.6883946
-8.825815815,-17.65163163,6.837056004,-0.031227791,1.0205669,0,221,mp-1009485,CrN,https://materialsproject.org/materials/mp-1009485,16.03032447
-6.203163077,-37.21897846,3.425295347,-2.183347288,2.0000002,0,65,mp-755602,Li2CrO3,https://materialsproject.org/materials/mp-755602,55.20576263
-4.646700543,-69.70050815,2.888249315,-2.852598594,1.0000002,0.4071,12,mp-753268,Li6CuF8,https://materialsproject.org/materials/mp-753268,147.8598617
-6.634212933,-46.43949053,3.086518154,-2.425724061,2.9999998,3.1592,82,mp-762018,LiCoPO4,https://materialsproject.org/materials/mp-762018,86.53450699
-5.573392495,-61.30731745,2.688066188,-2.091970399,1,1.2659,5,mp-754233,Li5CrO5,https://materialsproject.org/materials/mp-754233,102.9768925
-4.068005349,-28.47603744,3.380322874,-2.288248798,0.0477274,0,139,mp-1147641,Na2CuF4,https://materialsproject.org/materials/mp-1147641,91.1338369
-7.10515551,-42.63093306,2.455727563,-2.43144118,5.0000001,2.7868,82,mp-760343,FePO4,https://materialsproject.org/materials/mp-760343,101.9805538
-4.962853774,-64.51709906,2.595270924,-2.926339098,2.9999998,2.2418,3,mp-756952,Li4MnF8,https://materialsproject.org/materials/mp-756952,150.161855
-5.330697866,-79.96046799,2.694359721,-2.114299452,1.9999999,1.0064,148,mp-756239,Li8CrO6,https://materialsproject.org/materials/mp-756239,125.4300727
-6.44503447,-70.89537917,3.586903521,-2.590718681,1.9999997,0,5,mp-768173,Li2Al2FeO6,https://materialsproject.org/materials/mp-768173,101.7027555
-6.431555595,-77.17866714,3.596720059,-2.739435068,5,2.6366,12,mp-770727,Li3Al2FeO6,https://materialsproject.org/materials/mp-770727,104.6297091
-6.820857087,-20.46257126,4.941993202,-0.384035353,8.60E-06,0,123,mp-20738,FeSi2,https://materialsproject.org/materials/mp-20738,37.63804067
-2.235885235,-8.94354094,2.966893988,-0.007810947,3.00E-07,0,44,mp-978279,Mg3Cu,https://materialsproject.org/materials/mp-978279,76.37577172
-5.071427292,-70.99998209,2.723220047,-3.04409419,3.9999998,1.8423,65,mp-1177082,Li5MnF8,https://materialsproject.org/materials/mp-1177082,147.3389923
-4.911545252,-63.85008828,2.731887086,-2.875030577,3.0000006,1.0421,139,mp-765258,Li4MnF8,https://materialsproject.org/materials/mp-765258,142.6525636
-6.505903565,-136.6239749,2.489214422,-2.480885163,0.9999999,0.7483,1,mp-556002,Li6Cu(B2O5)2,https://materialsproject.org/materials/mp-556002,205.7516827
-5.067747875,-70.94847025,2.705365398,-3.040414773,3.9999999,1.9875,71,mp-756629,Li5MnF8,https://materialsproject.org/materials/mp-756629,148.3113881
-6.11523279,-42.80662953,3.295338264,-3.496768082,5.0000001,4.634,71,mp-1251981,MnAlF5,https://materialsproject.org/materials/mp-1251981,89.14672615
-7.438953421,-74.38953421,3.122287259,-2.104841939,3,3.011,148,mp-770839,LiCr(CO3)2,https://materialsproject.org/materials/mp-770839,95.17432997
-5.093508205,-76.40262307,2.757405783,-3.074132466,4.9999996,4.5332,225,mp-759844,Li6MnF8,https://materialsproject.org/materials/mp-759844,149.6922584
-5.893362777,-17.68008833,4.751230924,-0.350399173,1.47E-05,0,225,mp-2291,Si2Ni,https://materialsproject.org/materials/mp-2291,40.14471692
-6.002600155,-48.02080124,4.079926323,-2.571913091,4.0000749,0,221,mp-1099245,Mg3FeO4,https://materialsproject.org/materials/mp-1099245,78.45276967
-6.66762549,-153.3553863,2.028639206,-1.834598631,8.00E-07,4.541,87,mp-555698,FeB2C6(O3F4)2,https://materialsproject.org/materials/mp-555698,325.3850586
-6.069346929,-133.5256324,2.44533676,-1.174664459,0,2.4782,148,mp-19310,Na3Co(NO2)6,https://materialsproject.org/materials/mp-19310,274.2978731
-8.532200414,-127.9830062,1.465960588,0.211487962,2.0000003,0,164,mp-1247236,Cr(C4N3)2,https://materialsproject.org/materials/mp-1247236,262.9316778
-6.059179666,-30.29589833,3.878598864,-1.730909474,1.0000016,0,221,mp-1076642,NaCrO3,https://materialsproject.org/materials/mp-1076642,52.65299544
-6.069788562,-133.5353484,2.444720388,-1.175106092,0,2.531,166,mp-22516,Na3Co(NO2)6,https://materialsproject.org/materials/mp-22516,274.3670301
-5.655170451,-175.310284,1.862728515,-0.612842205,1.0000001,0.7585,2,mp-556842,CuH12(N5O4)2,https://materialsproject.org/materials/mp-556842,306.3962581
-5.70107435,-45.6085948,4.243767788,-2.534459084,2,2.6869,221,mp-1099253,Mg3NiO4,https://materialsproject.org/materials/mp-1099253,76.53844783
-6.810422353,-47.67295647,2.936173266,-2.531813977,3.9999997,3.4905,82,mp-761486,LiFePO4,https://materialsproject.org/materials/mp-761486,89.21893729
-4.465720988,-26.79432593,2.56375054,-2.0113119,2.9999995,0.27,71,mvc-14314,CrF5,https://materialsproject.org/materials/mvc-14314,95.20407749
-6.771059726,-47.39741808,2.965970437,-2.49245135,4.0000005,3.5687,82,mp-754357,LiFePO4,https://materialsproject.org/materials/mp-754357,88.32261279
-5.890693049,-47.12554439,3.328500708,-2.109032727,1,0.915,65,mp-754470,Li3CrO4,https://materialsproject.org/materials/mp-754470,68.2557979
-4.478331654,-53.73997985,2.561509842,-2.672078837,1.9996042,0.6856,216,mp-759877,Li4CuF7,https://materialsproject.org/materials/mp-759877,145.4052392
-5.866723776,-29.33361888,3.10681585,-0.223033519,1.3222209,0,164,mp-1245886,Na2CrN2,https://materialsproject.org/materials/mp-1245886,67.33894999
-5.237116507,-36.65981555,2.211081152,-1.489469388,1,1.2047,1,mp-1226389,Cr(OF)3,https://materialsproject.org/materials/mp-1226389,117.9003354
-5.62454616,-466.8373313,1.472785335,-0.731434209,4,2.4146,2,mp-558641,FeH44C12(N5O8)2,https://materialsproject.org/materials/mp-558641,722.0171402
-3.891490503,-11.67447151,4.004613436,-0.026324293,0,0,123,mp-12794,Al2Cu,https://materialsproject.org/materials/mp-12794,48.7259041
-4.04146503,-12.12439509,4.065111536,-0.17629882,8.00E-07,0,225,mp-985806,Al2Cu,https://materialsproject.org/materials/mp-985806,48.00075189
-3.96745258,-23.80471548,3.702443167,0.106315999,8.00E-06,0,216,mp-1227281,Be4CuSi,https://materialsproject.org/materials/mp-1227281,57.26435051
-5.07983001,-35.55881007,3.712873084,-2.94409485,1.0000001,0,71,mp-1251392,AlCuF5,https://materialsproject.org/materials/mp-1251392,82.97144992
-6.113959218,-61.13959218,3.927893002,-2.786334551,3.9999995,2.5396,71,mp-1222163,Mg4FeO5,https://materialsproject.org/materials/mp-1222163,98.5282821
-6.116085633,-61.16085633,3.929740958,-2.788460966,3.9999996,2.6262,12,mp-1222209,Mg4FeO5,https://materialsproject.org/materials/mp-1222209,98.48194929
-6.113263395,-61.13263395,3.933442606,-2.785638728,3.9999826,2.754,166,mp-1222159,Mg4FeO5,https://materialsproject.org/materials/mp-1222159,98.38927079
-4.400388804,-30.80272163,2.389081976,-2.093673852,0,2.0818,148,mvc-11142,CrF6,https://materialsproject.org/materials/mvc-11142,115.3694591
-5.569943877,-462.3053418,1.490200377,-0.70228463,1.00E-07,3.146,2,mp-746662,NiH44C12(N5O8)2,https://materialsproject.org/materials/mp-746662,716.7533655
-6.505731065,-65.05731065,3.360513328,-2.456780962,3.0000002,0.7501,12,mp-755069,LiAl2FeO6,https://materialsproject.org/materials/mp-755069,105.1244664
-4.666668311,-70.00002467,2.991159359,-2.872566362,1.0000003,0,225,mp-753139,Li6CuF8,https://materialsproject.org/materials/mp-753139,142.7727824
-4.554309153,-18.21723661,4.590915388,-1.645901688,1,0,166,mp-754344,LiZnO2,https://materialsproject.org/materials/mp-754344,37.74307334
-4.563083809,-63.88317333,2.857116763,-2.777115481,1.9997585,0.6946,166,mp-753202,Li5CuF8,https://materialsproject.org/materials/mp-753202,145.4369483
-4.546535833,-63.65150166,2.916380562,-2.760567505,2.0000001,0.7918,65,mp-759224,Li5CuF8,https://materialsproject.org/materials/mp-759224,142.4815226
-5.10702481,-132.7826451,1.999603266,-1.898565448,2.9999996,0,148,mp-24122,CoSiH12(OF)6,https://materialsproject.org/materials/mp-24122,256.6878865
-6.427319051,-51.41855241,3.923086268,-2.777685957,4.9999992,0.9643,139,mp-1222140,Mg3MnO4,https://materialsproject.org/materials/mp-1222140,81.20532256
-4.878938186,-58.54725823,2.07154101,0.932971977,7.0000009,0,121,mp-1213741,CrN3O8,https://materialsproject.org/materials/mp-1213741,177.9634558
-6.28438732,-131.9721337,2.213483245,-1.574811691,0.9993265,0.788,2,mp-722243,Na2CuH4(C2O5)2,https://materialsproject.org/materials/mp-722243,241.257555
-4.749378352,-23.74689176,4.728391548,-1.21306377,1.9749667,0,221,mp-984552,BeZnO3,https://materialsproject.org/materials/mp-984552,42.991821
-6.892969555,-55.14375644,3.060728952,-2.689804263,4.9999999,2.7388,121,mp-752844,Li2MnSiO4,https://materialsproject.org/materials/mp-752844,87.29487586
-4.100255333,-12.300766,4.770475644,-0.389164779,0,0.5083,216,mp-7575,LiZnN,https://materialsproject.org/materials/mp-7575,30.0596172
-6.157344079,-104.6748494,2.752670539,-2.548768426,3.0000002,2.6886,2,mp-758702,Li6Co(SiO4)2,https://materialsproject.org/materials/mp-758702,171.7716807
-2.631114137,-7.89334241,4.335455484,0.279495145,2.00E-07,0,69,mp-1009830,Be2Zn,https://materialsproject.org/materials/mp-1009830,31.95612518
-1.848698035,-7.39479214,2.160108943,-0.099511841,3.00E-06,0,225,mp-976412,Li3Zn,https://materialsproject.org/materials/mp-976412,66.28906517
-1.850621018,-7.40248407,2.153117402,-0.101434824,0.010654,0,139,mp-976414,Li3Zn,https://materialsproject.org/materials/mp-976414,66.50431712
-7.104960201,-774.4406619,1.541841625,-0.028200041,1.9528678,0,2,mp-1211116,NiH36(C5N)12,https://materialsproject.org/materials/mp-1211116,1059.431105